+ 0 0 1 cbr 1000 ------- 0 0.0 2.0 0 0
- 0 0 1 cbr 1000 ------- 0 0.0 2.0 0 0
+ 0.016 0 1 cbr 1000 ------- 0 0.0 2.0 1 1
- 0.016 0 1 cbr 1000 ------- 0 0.0 2.0 1 1
r 0.018 0 1 cbr 1000 ------- 0 0.0 2.0 0 0
+ 0.018 1 2 cbr 1000 ------- 0 0.0 2.0 0 0
- 0.018 1 2 cbr 1000 ------- 0 0.0 2.0 0 0
+ 0.032 0 1 cbr 1000 ------- 0 0.0 2.0 2 2
- 0.032 0 1 cbr 1000 ------- 0 0.0 2.0 2 2
r 0.034 0 1 cbr 1000 ------- 0 0.0 2.0 1 1
+ 0.034 1 2 cbr 1000 ------- 0 0.0 2.0 1 1
- 0.038 1 2 cbr 1000 ------- 0 0.0 2.0 1 1
r 0.048 1 2 cbr 1000 ------- 0 0.0 2.0 0 0
+ 0.048 0 1 cbr 1000 ------- 0 0.0 2.0 3 3
- 0.048 0 1 cbr 1000 ------- 0 0.0 2.0 3 3
r 0.05 0 1 cbr 1000 ------- 0 0.0 2.0 2 2
+ 0.05 1 2 cbr 1000 ------- 0 0.0 2.0 2 2
- 0.058 1 2 cbr 1000 ------- 0 0.0 2.0 2 2
+ 0.064 0 1 cbr 1000 ------- 0 0.0 2.0 4 4
- 0.064 0 1 cbr 1000 ------- 0 0.0 2.0 4 4
r 0.066 0 1 cbr 1000 ------- 0 0.0 2.0 3 3
+ 0.066 1 2 cbr 1000 ------- 0 0.0 2.0 3 3
r 0.068 1 2 cbr 1000 ------- 0 0.0 2.0 1 1
- 0.078 1 2 cbr 1000 ------- 0 0.0 2.0 3 3
+ 0.08 0 1 cbr 1000 ------- 0 0.0 2.0 5 5
- 0.08 0 1 cbr 1000 ------- 0 0.0 2.0 5 5
r 0.082 0 1 cbr 1000 ------- 0 0.0 2.0 4 4
+ 0.082 1 2 cbr 1000 ------- 0 0.0 2.0 4 4
r 0.088 1 2 cbr 1000 ------- 0 0.0 2.0 2 2
+ 0.096 0 1 cbr 1000 ------- 0 0.0 2.0 6 6
- 0.096 0 1 cbr 1000 ------- 0 0.0 2.0 6 6
r 0.098 0 1 cbr 1000 ------- 0 0.0 2.0 5 5
+ 0.098 1 2 cbr 1000 ------- 0 0.0 2.0 5 5
- 0.098 1 2 cbr 1000 ------- 0 0.0 2.0 4 4
r 0.108 1 2 cbr 1000 ------- 0 0.0 2.0 3 3
+ 0.112 0 1 cbr 1000 ------- 0 0.0 2.0 7 7
- 0.112 0 1 cbr 1000 ------- 0 0.0 2.0 7 7
r 0.114 0 1 cbr 1000 ------- 0 0.0 2.0 6 6
+ 0.114 1 2 cbr 1000 ------- 0 0.0 2.0 6 6
- 0.118 1 2 cbr 1000 ------- 0 0.0 2.0 5 5
r 0.128 1 2 cbr 1000 ------- 0 0.0 2.0 4 4
+ 0.128 0 1 cbr 1000 ------- 0 0.0 2.0 8 8
- 0.128 0 1 cbr 1000 ------- 0 0.0 2.0 8 8
r 0.13 0 1 cbr 1000 ------- 0 0.0 2.0 7 7
+ 0.13 1 2 cbr 1000 ------- 0 0.0 2.0 7 7
- 0.138 1 2 cbr 1000 ------- 0 0.0 2.0 6 6
+ 0.144 0 1 cbr 1000 ------- 0 0.0 2.0 9 9
- 0.144 0 1 cbr 1000 ------- 0 0.0 2.0 9 9
r 0.146 0 1 cbr 1000 ------- 0 0.0 2.0 8 8
+ 0.146 1 2 cbr 1000 ------- 0 0.0 2.0 8 8
r 0.148 1 2 cbr 1000 ------- 0 0.0 2.0 5 5
- 0.158 1 2 cbr 1000 ------- 0 0.0 2.0 7 7
+ 0.16 0 1 cbr 1000 ------- 0 0.0 2.0 10 10
- 0.16 0 1 cbr 1000 ------- 0 0.0 2.0 10 10
r 0.162 0 1 cbr 1000 ------- 0 0.0 2.0 9 9
+ 0.162 1 2 cbr 1000 ------- 0 0.0 2.0 9 9
r 0.168 1 2 cbr 1000 ------- 0 0.0 2.0 6 6
+ 0.176 0 1 cbr 1000 ------- 0 0.0 2.0 11 11
- 0.176 0 1 cbr 1000 ------- 0 0.0 2.0 11 11
- 0.178 1 2 cbr 1000 ------- 0 0.0 2.0 8 8
r 0.178 0 1 cbr 1000 ------- 0 0.0 2.0 10 10
+ 0.178 1 2 cbr 1000 ------- 0 0.0 2.0 10 10
r 0.188 1 2 cbr 1000 ------- 0 0.0 2.0 7 7
+ 0.192 0 1 cbr 1000 ------- 0 0.0 2.0 12 12
- 0.192 0 1 cbr 1000 ------- 0 0.0 2.0 12 12
r 0.194 0 1 cbr 1000 ------- 0 0.0 2.0 11 11
+ 0.194 1 2 cbr 1000 ------- 0 0.0 2.0 11 11
- 0.198 1 2 cbr 1000 ------- 0 0.0 2.0 9 9
r 0.208 1 2 cbr 1000 ------- 0 0.0 2.0 8 8
+ 0.208 0 1 cbr 1000 ------- 0 0.0 2.0 13 13
- 0.208 0 1 cbr 1000 ------- 0 0.0 2.0 13 13
r 0.21 0 1 cbr 1000 ------- 0 0.0 2.0 12 12
+ 0.21 1 2 cbr 1000 ------- 0 0.0 2.0 12 12
- 0.218 1 2 cbr 1000 ------- 0 0.0 2.0 10 10
+ 0.224 0 1 cbr 1000 ------- 0 0.0 2.0 14 14
- 0.224 0 1 cbr 1000 ------- 0 0.0 2.0 14 14
r 0.226 0 1 cbr 1000 ------- 0 0.0 2.0 13 13
+ 0.226 1 2 cbr 1000 ------- 0 0.0 2.0 13 13
r 0.228 1 2 cbr 1000 ------- 0 0.0 2.0 9 9
- 0.238 1 2 cbr 1000 ------- 0 0.0 2.0 11 11
+ 0.24 0 1 cbr 1000 ------- 0 0.0 2.0 15 15
- 0.24 0 1 cbr 1000 ------- 0 0.0 2.0 15 15
r 0.242 0 1 cbr 1000 ------- 0 0.0 2.0 14 14
+ 0.242 1 2 cbr 1000 ------- 0 0.0 2.0 14 14
r 0.248 1 2 cbr 1000 ------- 0 0.0 2.0 10 10
+ 0.256 0 1 cbr 1000 ------- 0 0.0 2.0 16 16
- 0.256 0 1 cbr 1000 ------- 0 0.0 2.0 16 16
- 0.258 1 2 cbr 1000 ------- 0 0.0 2.0 12 12
r 0.258 0 1 cbr 1000 ------- 0 0.0 2.0 15 15
+ 0.258 1 2 cbr 1000 ------- 0 0.0 2.0 15 15
r 0.268 1 2 cbr 1000 ------- 0 0.0 2.0 11 11
+ 0.272 0 1 cbr 1000 ------- 0 0.0 2.0 17 17
- 0.272 0 1 cbr 1000 ------- 0 0.0 2.0 17 17
r 0.274 0 1 cbr 1000 ------- 0 0.0 2.0 16 16
+ 0.274 1 2 cbr 1000 ------- 0 0.0 2.0 16 16
- 0.278 1 2 cbr 1000 ------- 0 0.0 2.0 13 13
r 0.288 1 2 cbr 1000 ------- 0 0.0 2.0 12 12
+ 0.288 0 1 cbr 1000 ------- 0 0.0 2.0 18 18
- 0.288 0 1 cbr 1000 ------- 0 0.0 2.0 18 18
r 0.29 0 1 cbr 1000 ------- 0 0.0 2.0 17 17
+ 0.29 1 2 cbr 1000 ------- 0 0.0 2.0 17 17
- 0.298 1 2 cbr 1000 ------- 0 0.0 2.0 14 14
+ 0.304 0 1 cbr 1000 ------- 0 0.0 2.0 19 19
- 0.304 0 1 cbr 1000 ------- 0 0.0 2.0 19 19
r 0.306 0 1 cbr 1000 ------- 0 0.0 2.0 18 18
+ 0.306 1 2 cbr 1000 ------- 0 0.0 2.0 18 18
r 0.308 1 2 cbr 1000 ------- 0 0.0 2.0 13 13
- 0.318 1 2 cbr 1000 ------- 0 0.0 2.0 15 15
+ 0.32 0 1 cbr 1000 ------- 0 0.0 2.0 20 20
- 0.32 0 1 cbr 1000 ------- 0 0.0 2.0 20 20
r 0.322 0 1 cbr 1000 ------- 0 0.0 2.0 19 19
+ 0.322 1 2 cbr 1000 ------- 0 0.0 2.0 19 19
r 0.328 1 2 cbr 1000 ------- 0 0.0 2.0 14 14
+ 0.336 0 1 cbr 1000 ------- 0 0.0 2.0 21 21
- 0.336 0 1 cbr 1000 ------- 0 0.0 2.0 21 21
- 0.338 1 2 cbr 1000 ------- 0 0.0 2.0 16 16
r 0.338 0 1 cbr 1000 ------- 0 0.0 2.0 20 20
+ 0.338 1 2 cbr 1000 ------- 0 0.0 2.0 20 20
r 0.348 1 2 cbr 1000 ------- 0 0.0 2.0 15 15
+ 0.352 0 1 cbr 1000 ------- 0 0.0 2.0 22 22
- 0.352 0 1 cbr 1000 ------- 0 0.0 2.0 22 22
r 0.354 0 1 cbr 1000 ------- 0 0.0 2.0 21 21
+ 0.354 1 2 cbr 1000 ------- 0 0.0 2.0 21 21
- 0.358 1 2 cbr 1000 ------- 0 0.0 2.0 17 17
r 0.368 1 2 cbr 1000 ------- 0 0.0 2.0 16 16
+ 0.368 0 1 cbr 1000 ------- 0 0.0 2.0 23 23
- 0.368 0 1 cbr 1000 ------- 0 0.0 2.0 23 23
r 0.37 0 1 cbr 1000 ------- 0 0.0 2.0 22 22
+ 0.37 1 2 cbr 1000 ------- 0 0.0 2.0 22 22
- 0.378 1 2 cbr 1000 ------- 0 0.0 2.0 18 18
+ 0.384 0 1 cbr 1000 ------- 0 0.0 2.0 24 24
- 0.384 0 1 cbr 1000 ------- 0 0.0 2.0 24 24
r 0.386 0 1 cbr 1000 ------- 0 0.0 2.0 23 23
+ 0.386 1 2 cbr 1000 ------- 0 0.0 2.0 23 23
r 0.388 1 2 cbr 1000 ------- 0 0.0 2.0 17 17
- 0.398 1 2 cbr 1000 ------- 0 0.0 2.0 19 19
+ 0.4 0 1 cbr 1000 ------- 0 0.0 2.0 25 25
- 0.4 0 1 cbr 1000 ------- 0 0.0 2.0 25 25
r 0.402 0 1 cbr 1000 ------- 0 0.0 2.0 24 24
+ 0.402 1 2 cbr 1000 ------- 0 0.0 2.0 24 24
r 0.408 1 2 cbr 1000 ------- 0 0.0 2.0 18 18
+ 0.416 0 1 cbr 1000 ------- 0 0.0 2.0 26 26
- 0.416 0 1 cbr 1000 ------- 0 0.0 2.0 26 26
- 0.418 1 2 cbr 1000 ------- 0 0.0 2.0 20 20
r 0.418 0 1 cbr 1000 ------- 0 0.0 2.0 25 25
+ 0.418 1 2 cbr 1000 ------- 0 0.0 2.0 25 25
r 0.428 1 2 cbr 1000 ------- 0 0.0 2.0 19 19
+ 0.432 0 1 cbr 1000 ------- 0 0.0 2.0 27 27
- 0.432 0 1 cbr 1000 ------- 0 0.0 2.0 27 27
r 0.434 0 1 cbr 1000 ------- 0 0.0 2.0 26 26
+ 0.434 1 2 cbr 1000 ------- 0 0.0 2.0 26 26
- 0.438 1 2 cbr 1000 ------- 0 0.0 2.0 21 21
r 0.448 1 2 cbr 1000 ------- 0 0.0 2.0 20 20
+ 0.448 0 1 cbr 1000 ------- 0 0.0 2.0 28 28
- 0.448 0 1 cbr 1000 ------- 0 0.0 2.0 28 28
r 0.45 0 1 cbr 1000 ------- 0 0.0 2.0 27 27
+ 0.45 1 2 cbr 1000 ------- 0 0.0 2.0 27 27
- 0.458 1 2 cbr 1000 ------- 0 0.0 2.0 22 22
+ 0.464 0 1 cbr 1000 ------- 0 0.0 2.0 29 29
- 0.464 0 1 cbr 1000 ------- 0 0.0 2.0 29 29
r 0.466 0 1 cbr 1000 ------- 0 0.0 2.0 28 28
+ 0.466 1 2 cbr 1000 ------- 0 0.0 2.0 28 28
r 0.468 1 2 cbr 1000 ------- 0 0.0 2.0 21 21
- 0.478 1 2 cbr 1000 ------- 0 0.0 2.0 23 23
+ 0.48 0 1 cbr 1000 ------- 0 0.0 2.0 30 30
- 0.48 0 1 cbr 1000 ------- 0 0.0 2.0 30 30
r 0.482 0 1 cbr 1000 ------- 0 0.0 2.0 29 29
+ 0.482 1 2 cbr 1000 ------- 0 0.0 2.0 29 29
r 0.488 1 2 cbr 1000 ------- 0 0.0 2.0 22 22
+ 0.496 0 1 cbr 1000 ------- 0 0.0 2.0 31 31
- 0.496 0 1 cbr 1000 ------- 0 0.0 2.0 31 31
- 0.498 1 2 cbr 1000 ------- 0 0.0 2.0 24 24
r 0.498 0 1 cbr 1000 ------- 0 0.0 2.0 30 30
+ 0.498 1 2 cbr 1000 ------- 0 0.0 2.0 30 30
r 0.508 1 2 cbr 1000 ------- 0 0.0 2.0 23 23
+ 0.512 0 1 cbr 1000 ------- 0 0.0 2.0 32 32
- 0.512 0 1 cbr 1000 ------- 0 0.0 2.0 32 32
r 0.514 0 1 cbr 1000 ------- 0 0.0 2.0 31 31
+ 0.514 1 2 cbr 1000 ------- 0 0.0 2.0 31 31
- 0.518 1 2 cbr 1000 ------- 0 0.0 2.0 25 25
r 0.528 1 2 cbr 1000 ------- 0 0.0 2.0 24 24
+ 0.528 0 1 cbr 1000 ------- 0 0.0 2.0 33 33
- 0.528 0 1 cbr 1000 ------- 0 0.0 2.0 33 33
r 0.53 0 1 cbr 1000 ------- 0 0.0 2.0 32 32
+ 0.53 1 2 cbr 1000 ------- 0 0.0 2.0 32 32
- 0.538 1 2 cbr 1000 ------- 0 0.0 2.0 26 26
+ 0.544 0 1 cbr 1000 ------- 0 0.0 2.0 34 34
- 0.544 0 1 cbr 1000 ------- 0 0.0 2.0 34 34
r 0.546 0 1 cbr 1000 ------- 0 0.0 2.0 33 33
+ 0.546 1 2 cbr 1000 ------- 0 0.0 2.0 33 33
r 0.548 1 2 cbr 1000 ------- 0 0.0 2.0 25 25
- 0.558 1 2 cbr 1000 ------- 0 0.0 2.0 27 27
+ 0.56 0 1 cbr 1000 ------- 0 0.0 2.0 35 35
- 0.56 0 1 cbr 1000 ------- 0 0.0 2.0 35 35
r 0.562 0 1 cbr 1000 ------- 0 0.0 2.0 34 34
+ 0.562 1 2 cbr 1000 ------- 0 0.0 2.0 34 34
r 0.568 1 2 cbr 1000 ------- 0 0.0 2.0 26 26
+ 0.576 0 1 cbr 1000 ------- 0 0.0 2.0 36 36
- 0.576 0 1 cbr 1000 ------- 0 0.0 2.0 36 36
- 0.578 1 2 cbr 1000 ------- 0 0.0 2.0 28 28
r 0.578 0 1 cbr 1000 ------- 0 0.0 2.0 35 35
+ 0.578 1 2 cbr 1000 ------- 0 0.0 2.0 35 35
r 0.588 1 2 cbr 1000 ------- 0 0.0 2.0 27 27
+ 0.592 0 1 cbr 1000 ------- 0 0.0 2.0 37 37
- 0.592 0 1 cbr 1000 ------- 0 0.0 2.0 37 37
r 0.594 0 1 cbr 1000 ------- 0 0.0 2.0 36 36
+ 0.594 1 2 cbr 1000 ------- 0 0.0 2.0 36 36
- 0.598 1 2 cbr 1000 ------- 0 0.0 2.0 29 29
r 0.608 1 2 cbr 1000 ------- 0 0.0 2.0 28 28
+ 0.608 0 1 cbr 1000 ------- 0 0.0 2.0 38 38
- 0.608 0 1 cbr 1000 ------- 0 0.0 2.0 38 38
r 0.61 0 1 cbr 1000 ------- 0 0.0 2.0 37 37
+ 0.61 1 2 cbr 1000 ------- 0 0.0 2.0 37 37
- 0.618 1 2 cbr 1000 ------- 0 0.0 2.0 30 30
+ 0.624 0 1 cbr 1000 ------- 0 0.0 2.0 39 39
- 0.624 0 1 cbr 1000 ------- 0 0.0 2.0 39 39
r 0.626 0 1 cbr 1000 ------- 0 0.0 2.0 38 38
+ 0.626 1 2 cbr 1000 ------- 0 0.0 2.0 38 38
r 0.628 1 2 cbr 1000 ------- 0 0.0 2.0 29 29
- 0.638 1 2 cbr 1000 ------- 0 0.0 2.0 31 31
+ 0.64 0 1 cbr 1000 ------- 0 0.0 2.0 40 40
- 0.64 0 1 cbr 1000 ------- 0 0.0 2.0 40 40
r 0.642 0 1 cbr 1000 ------- 0 0.0 2.0 39 39
+ 0.642 1 2 cbr 1000 ------- 0 0.0 2.0 39 39
r 0.648 1 2 cbr 1000 ------- 0 0.0 2.0 30 30
+ 0.656 0 1 cbr 1000 ------- 0 0.0 2.0 41 41
- 0.656 0 1 cbr 1000 ------- 0 0.0 2.0 41 41
- 0.658 1 2 cbr 1000 ------- 0 0.0 2.0 32 32
r 0.658 0 1 cbr 1000 ------- 0 0.0 2.0 40 40
+ 0.658 1 2 cbr 1000 ------- 0 0.0 2.0 40 40
r 0.668 1 2 cbr 1000 ------- 0 0.0 2.0 31 31
+ 0.672 0 1 cbr 1000 ------- 0 0.0 2.0 42 42
- 0.672 0 1 cbr 1000 ------- 0 0.0 2.0 42 42
r 0.674 0 1 cbr 1000 ------- 0 0.0 2.0 41 41
+ 0.674 1 2 cbr 1000 ------- 0 0.0 2.0 41 41
- 0.678 1 2 cbr 1000 ------- 0 0.0 2.0 33 33
r 0.688 1 2 cbr 1000 ------- 0 0.0 2.0 32 32
+ 0.688 0 1 cbr 1000 ------- 0 0.0 2.0 43 43
- 0.688 0 1 cbr 1000 ------- 0 0.0 2.0 43 43
r 0.69 0 1 cbr 1000 ------- 0 0.0 2.0 42 42
+ 0.69 1 2 cbr 1000 ------- 0 0.0 2.0 42 42
- 0.698 1 2 cbr 1000 ------- 0 0.0 2.0 34 34
+ 0.704 0 1 cbr 1000 ------- 0 0.0 2.0 44 44
- 0.704 0 1 cbr 1000 ------- 0 0.0 2.0 44 44
r 0.706 0 1 cbr 1000 ------- 0 0.0 2.0 43 43
+ 0.706 1 2 cbr 1000 ------- 0 0.0 2.0 43 43
r 0.708 1 2 cbr 1000 ------- 0 0.0 2.0 33 33
- 0.718 1 2 cbr 1000 ------- 0 0.0 2.0 35 35
+ 0.72 0 1 cbr 1000 ------- 0 0.0 2.0 45 45
- 0.72 0 1 cbr 1000 ------- 0 0.0 2.0 45 45
r 0.722 0 1 cbr 1000 ------- 0 0.0 2.0 44 44
+ 0.722 1 2 cbr 1000 ------- 0 0.0 2.0 44 44
r 0.728 1 2 cbr 1000 ------- 0 0.0 2.0 34 34
+ 0.736 0 1 cbr 1000 ------- 0 0.0 2.0 46 46
- 0.736 0 1 cbr 1000 ------- 0 0.0 2.0 46 46
- 0.738 1 2 cbr 1000 ------- 0 0.0 2.0 36 36
r 0.738 0 1 cbr 1000 ------- 0 0.0 2.0 45 45
+ 0.738 1 2 cbr 1000 ------- 0 0.0 2.0 45 45
r 0.748 1 2 cbr 1000 ------- 0 0.0 2.0 35 35
+ 0.752 0 1 cbr 1000 ------- 0 0.0 2.0 47 47
- 0.752 0 1 cbr 1000 ------- 0 0.0 2.0 47 47
r 0.754 0 1 cbr 1000 ------- 0 0.0 2.0 46 46
+ 0.754 1 2 cbr 1000 ------- 0 0.0 2.0 46 46
d 0.754 1 2 cbr 1000 ------- 0 0.0 2.0 46 46
- 0.758 1 2 cbr 1000 ------- 0 0.0 2.0 37 37
r 0.768 1 2 cbr 1000 ------- 0 0.0 2.0 36 36
+ 0.768 0 1 cbr 1000 ------- 0 0.0 2.0 48 48
- 0.768 0 1 cbr 1000 ------- 0 0.0 2.0 48 48
r 0.77 0 1 cbr 1000 ------- 0 0.0 2.0 47 47
+ 0.77 1 2 cbr 1000 ------- 0 0.0 2.0 47 47
- 0.778 1 2 cbr 1000 ------- 0 0.0 2.0 38 38
+ 0.784 0 1 cbr 1000 ------- 0 0.0 2.0 49 49
- 0.784 0 1 cbr 1000 ------- 0 0.0 2.0 49 49
r 0.786 0 1 cbr 1000 ------- 0 0.0 2.0 48 48
+ 0.786 1 2 cbr 1000 ------- 0 0.0 2.0 48 48
r 0.788 1 2 cbr 1000 ------- 0 0.0 2.0 37 37
- 0.798 1 2 cbr 1000 ------- 0 0.0 2.0 39 39
+ 0.8 0 1 cbr 1000 ------- 0 0.0 2.0 50 50
- 0.8 0 1 cbr 1000 ------- 0 0.0 2.0 50 50
r 0.802 0 1 cbr 1000 ------- 0 0.0 2.0 49 49
+ 0.802 1 2 cbr 1000 ------- 0 0.0 2.0 49 49
r 0.808 1 2 cbr 1000 ------- 0 0.0 2.0 38 38
+ 0.816 0 1 cbr 1000 ------- 0 0.0 2.0 51 51
- 0.816 0 1 cbr 1000 ------- 0 0.0 2.0 51 51
- 0.818 1 2 cbr 1000 ------- 0 0.0 2.0 40 40
r 0.818 0 1 cbr 1000 ------- 0 0.0 2.0 50 50
+ 0.818 1 2 cbr 1000 ------- 0 0.0 2.0 50 50
r 0.828 1 2 cbr 1000 ------- 0 0.0 2.0 39 39
+ 0.832 0 1 cbr 1000 ------- 0 0.0 2.0 52 52
- 0.832 0 1 cbr 1000 ------- 0 0.0 2.0 52 52
r 0.834 0 1 cbr 1000 ------- 0 0.0 2.0 51 51
+ 0.834 1 2 cbr 1000 ------- 0 0.0 2.0 51 51
d 0.834 1 2 cbr 1000 ------- 0 0.0 2.0 51 51
- 0.838 1 2 cbr 1000 ------- 0 0.0 2.0 41 41
r 0.848 1 2 cbr 1000 ------- 0 0.0 2.0 40 40
+ 0.848 0 1 cbr 1000 ------- 0 0.0 2.0 53 53
- 0.848 0 1 cbr 1000 ------- 0 0.0 2.0 53 53
r 0.85 0 1 cbr 1000 ------- 0 0.0 2.0 52 52
+ 0.85 1 2 cbr 1000 ------- 0 0.0 2.0 52 52
- 0.858 1 2 cbr 1000 ------- 0 0.0 2.0 42 42
+ 0.864 0 1 cbr 1000 ------- 0 0.0 2.0 54 54
- 0.864 0 1 cbr 1000 ------- 0 0.0 2.0 54 54
r 0.866 0 1 cbr 1000 ------- 0 0.0 2.0 53 53
+ 0.866 1 2 cbr 1000 ------- 0 0.0 2.0 53 53
r 0.868 1 2 cbr 1000 ------- 0 0.0 2.0 41 41
- 0.878 1 2 cbr 1000 ------- 0 0.0 2.0 43 43
+ 0.88 0 1 cbr 1000 ------- 0 0.0 2.0 55 55
- 0.88 0 1 cbr 1000 ------- 0 0.0 2.0 55 55
r 0.882 0 1 cbr 1000 ------- 0 0.0 2.0 54 54
+ 0.882 1 2 cbr 1000 ------- 0 0.0 2.0 54 54
r 0.888 1 2 cbr 1000 ------- 0 0.0 2.0 42 42
+ 0.896 0 1 cbr 1000 ------- 0 0.0 2.0 56 56
- 0.896 0 1 cbr 1000 ------- 0 0.0 2.0 56 56
- 0.898 1 2 cbr 1000 ------- 0 0.0 2.0 44 44
r 0.898 0 1 cbr 1000 ------- 0 0.0 2.0 55 55
+ 0.898 1 2 cbr 1000 ------- 0 0.0 2.0 55 55
r 0.908 1 2 cbr 1000 ------- 0 0.0 2.0 43 43
+ 0.912 0 1 cbr 1000 ------- 0 0.0 2.0 57 57
- 0.912 0 1 cbr 1000 ------- 0 0.0 2.0 57 57
r 0.914 0 1 cbr 1000 ------- 0 0.0 2.0 56 56
+ 0.914 1 2 cbr 1000 ------- 0 0.0 2.0 56 56
d 0.914 1 2 cbr 1000 ------- 0 0.0 2.0 56 56
- 0.918 1 2 cbr 1000 ------- 0 0.0 2.0 45 45
r 0.928 1 2 cbr 1000 ------- 0 0.0 2.0 44 44
+ 0.928 0 1 cbr 1000 ------- 0 0.0 2.0 58 58
- 0.928 0 1 cbr 1000 ------- 0 0.0 2.0 58 58
r 0.93 0 1 cbr 1000 ------- 0 0.0 2.0 57 57
+ 0.93 1 2 cbr 1000 ------- 0 0.0 2.0 57 57
- 0.938 1 2 cbr 1000 ------- 0 0.0 2.0 47 47
+ 0.944 0 1 cbr 1000 ------- 0 0.0 2.0 59 59
- 0.944 0 1 cbr 1000 ------- 0 0.0 2.0 59 59
r 0.946 0 1 cbr 1000 ------- 0 0.0 2.0 58 58
+ 0.946 1 2 cbr 1000 ------- 0 0.0 2.0 58 58
r 0.948 1 2 cbr 1000 ------- 0 0.0 2.0 45 45
- 0.958 1 2 cbr 1000 ------- 0 0.0 2.0 48 48
+ 0.96 0 1 cbr 1000 ------- 0 0.0 2.0 60 60
- 0.96 0 1 cbr 1000 ------- 0 0.0 2.0 60 60
r 0.962 0 1 cbr 1000 ------- 0 0.0 2.0 59 59
+ 0.962 1 2 cbr 1000 ------- 0 0.0 2.0 59 59
r 0.968 1 2 cbr 1000 ------- 0 0.0 2.0 47 47
+ 0.976 0 1 cbr 1000 ------- 0 0.0 2.0 61 61
- 0.976 0 1 cbr 1000 ------- 0 0.0 2.0 61 61
- 0.978 1 2 cbr 1000 ------- 0 0.0 2.0 49 49
r 0.978 0 1 cbr 1000 ------- 0 0.0 2.0 60 60
+ 0.978 1 2 cbr 1000 ------- 0 0.0 2.0 60 60
r 0.988 1 2 cbr 1000 ------- 0 0.0 2.0 48 48
+ 0.992 0 1 cbr 1000 ------- 0 0.0 2.0 62 62
- 0.992 0 1 cbr 1000 ------- 0 0.0 2.0 62 62
r 0.994 0 1 cbr 1000 ------- 0 0.0 2.0 61 61
+ 0.994 1 2 cbr 1000 ------- 0 0.0 2.0 61 61
d 0.994 1 2 cbr 1000 ------- 0 0.0 2.0 61 61
- 0.998 1 2 cbr 1000 ------- 0 0.0 2.0 50 50
r 1.008 1 2 cbr 1000 ------- 0 0.0 2.0 49 49
+ 1.008 0 1 cbr 1000 ------- 0 0.0 2.0 63 63
- 1.008 0 1 cbr 1000 ------- 0 0.0 2.0 63 63
r 1.01 0 1 cbr 1000 ------- 0 0.0 2.0 62 62
+ 1.01 1 2 cbr 1000 ------- 0 0.0 2.0 62 62
- 1.018 1 2 cbr 1000 ------- 0 0.0 2.0 52 52
+ 1.024 0 1 cbr 1000 ------- 0 0.0 2.0 64 64
- 1.024 0 1 cbr 1000 ------- 0 0.0 2.0 64 64
r 1.026 0 1 cbr 1000 ------- 0 0.0 2.0 63 63
+ 1.026 1 2 cbr 1000 ------- 0 0.0 2.0 63 63
r 1.028 1 2 cbr 1000 ------- 0 0.0 2.0 50 50
- 1.038 1 2 cbr 1000 ------- 0 0.0 2.0 53 53
+ 1.04 0 1 cbr 1000 ------- 0 0.0 2.0 65 65
- 1.04 0 1 cbr 1000 ------- 0 0.0 2.0 65 65
r 1.042 0 1 cbr 1000 ------- 0 0.0 2.0 64 64
+ 1.042 1 2 cbr 1000 ------- 0 0.0 2.0 64 64
r 1.048 1 2 cbr 1000 ------- 0 0.0 2.0 52 52
+ 1.056 0 1 cbr 1000 ------- 0 0.0 2.0 66 66
- 1.056 0 1 cbr 1000 ------- 0 0.0 2.0 66 66
- 1.058 1 2 cbr 1000 ------- 0 0.0 2.0 54 54
r 1.058 0 1 cbr 1000 ------- 0 0.0 2.0 65 65
+ 1.058 1 2 cbr 1000 ------- 0 0.0 2.0 65 65
r 1.068 1 2 cbr 1000 ------- 0 0.0 2.0 53 53
+ 1.072 0 1 cbr 1000 ------- 0 0.0 2.0 67 67
- 1.072 0 1 cbr 1000 ------- 0 0.0 2.0 67 67
r 1.074 0 1 cbr 1000 ------- 0 0.0 2.0 66 66
+ 1.074 1 2 cbr 1000 ------- 0 0.0 2.0 66 66
d 1.074 1 2 cbr 1000 ------- 0 0.0 2.0 66 66
- 1.078 1 2 cbr 1000 ------- 0 0.0 2.0 55 55
r 1.088 1 2 cbr 1000 ------- 0 0.0 2.0 54 54
+ 1.088 0 1 cbr 1000 ------- 0 0.0 2.0 68 68
- 1.088 0 1 cbr 1000 ------- 0 0.0 2.0 68 68
r 1.09 0 1 cbr 1000 ------- 0 0.0 2.0 67 67
+ 1.09 1 2 cbr 1000 ------- 0 0.0 2.0 67 67
- 1.098 1 2 cbr 1000 ------- 0 0.0 2.0 57 57
+ 1.104 0 1 cbr 1000 ------- 0 0.0 2.0 69 69
- 1.104 0 1 cbr 1000 ------- 0 0.0 2.0 69 69
r 1.106 0 1 cbr 1000 ------- 0 0.0 2.0 68 68
+ 1.106 1 2 cbr 1000 ------- 0 0.0 2.0 68 68
r 1.108 1 2 cbr 1000 ------- 0 0.0 2.0 55 55
- 1.118 1 2 cbr 1000 ------- 0 0.0 2.0 58 58
+ 1.12 0 1 cbr 1000 ------- 0 0.0 2.0 70 70
- 1.12 0 1 cbr 1000 ------- 0 0.0 2.0 70 70
r 1.122 0 1 cbr 1000 ------- 0 0.0 2.0 69 69
+ 1.122 1 2 cbr 1000 ------- 0 0.0 2.0 69 69
r 1.128 1 2 cbr 1000 ------- 0 0.0 2.0 57 57
+ 1.136 0 1 cbr 1000 ------- 0 0.0 2.0 71 71
- 1.136 0 1 cbr 1000 ------- 0 0.0 2.0 71 71
- 1.138 1 2 cbr 1000 ------- 0 0.0 2.0 59 59
r 1.138 0 1 cbr 1000 ------- 0 0.0 2.0 70 70
+ 1.138 1 2 cbr 1000 ------- 0 0.0 2.0 70 70
r 1.148 1 2 cbr 1000 ------- 0 0.0 2.0 58 58
+ 1.152 0 1 cbr 1000 ------- 0 0.0 2.0 72 72
- 1.152 0 1 cbr 1000 ------- 0 0.0 2.0 72 72
r 1.154 0 1 cbr 1000 ------- 0 0.0 2.0 71 71
+ 1.154 1 2 cbr 1000 ------- 0 0.0 2.0 71 71
d 1.154 1 2 cbr 1000 ------- 0 0.0 2.0 71 71
- 1.158 1 2 cbr 1000 ------- 0 0.0 2.0 60 60
r 1.168 1 2 cbr 1000 ------- 0 0.0 2.0 59 59
+ 1.168 0 1 cbr 1000 ------- 0 0.0 2.0 73 73
- 1.168 0 1 cbr 1000 ------- 0 0.0 2.0 73 73
r 1.17 0 1 cbr 1000 ------- 0 0.0 2.0 72 72
+ 1.17 1 2 cbr 1000 ------- 0 0.0 2.0 72 72
- 1.178 1 2 cbr 1000 ------- 0 0.0 2.0 62 62
+ 1.184 0 1 cbr 1000 ------- 0 0.0 2.0 74 74
- 1.184 0 1 cbr 1000 ------- 0 0.0 2.0 74 74
r 1.186 0 1 cbr 1000 ------- 0 0.0 2.0 73 73
+ 1.186 1 2 cbr 1000 ------- 0 0.0 2.0 73 73
r 1.188 1 2 cbr 1000 ------- 0 0.0 2.0 60 60
- 1.198 1 2 cbr 1000 ------- 0 0.0 2.0 63 63
+ 1.2 0 1 cbr 1000 ------- 0 0.0 2.0 75 75
- 1.2 0 1 cbr 1000 ------- 0 0.0 2.0 75 75
r 1.202 0 1 cbr 1000 ------- 0 0.0 2.0 74 74
+ 1.202 1 2 cbr 1000 ------- 0 0.0 2.0 74 74
r 1.208 1 2 cbr 1000 ------- 0 0.0 2.0 62 62
+ 1.216 0 1 cbr 1000 ------- 0 0.0 2.0 76 76
- 1.216 0 1 cbr 1000 ------- 0 0.0 2.0 76 76
- 1.218 1 2 cbr 1000 ------- 0 0.0 2.0 64 64
r 1.218 0 1 cbr 1000 ------- 0 0.0 2.0 75 75
+ 1.218 1 2 cbr 1000 ------- 0 0.0 2.0 75 75
r 1.228 1 2 cbr 1000 ------- 0 0.0 2.0 63 63
+ 1.232 0 1 cbr 1000 ------- 0 0.0 2.0 77 77
- 1.232 0 1 cbr 1000 ------- 0 0.0 2.0 77 77
r 1.234 0 1 cbr 1000 ------- 0 0.0 2.0 76 76
+ 1.234 1 2 cbr 1000 ------- 0 0.0 2.0 76 76
d 1.234 1 2 cbr 1000 ------- 0 0.0 2.0 76 76
- 1.238 1 2 cbr 1000 ------- 0 0.0 2.0 65 65
r 1.248 1 2 cbr 1000 ------- 0 0.0 2.0 64 64
+ 1.248 0 1 cbr 1000 ------- 0 0.0 2.0 78 78
- 1.248 0 1 cbr 1000 ------- 0 0.0 2.0 78 78
r 1.25 0 1 cbr 1000 ------- 0 0.0 2.0 77 77
+ 1.25 1 2 cbr 1000 ------- 0 0.0 2.0 77 77
- 1.258 1 2 cbr 1000 ------- 0 0.0 2.0 67 67
+ 1.264 0 1 cbr 1000 ------- 0 0.0 2.0 79 79
- 1.264 0 1 cbr 1000 ------- 0 0.0 2.0 79 79
r 1.266 0 1 cbr 1000 ------- 0 0.0 2.0 78 78
+ 1.266 1 2 cbr 1000 ------- 0 0.0 2.0 78 78
r 1.268 1 2 cbr 1000 ------- 0 0.0 2.0 65 65
- 1.278 1 2 cbr 1000 ------- 0 0.0 2.0 68 68
+ 1.28 0 1 cbr 1000 ------- 0 0.0 2.0 80 80
- 1.28 0 1 cbr 1000 ------- 0 0.0 2.0 80 80
r 1.282 0 1 cbr 1000 ------- 0 0.0 2.0 79 79
+ 1.282 1 2 cbr 1000 ------- 0 0.0 2.0 79 79
r 1.288 1 2 cbr 1000 ------- 0 0.0 2.0 67 67
+ 1.296 0 1 cbr 1000 ------- 0 0.0 2.0 81 81
- 1.296 0 1 cbr 1000 ------- 0 0.0 2.0 81 81
- 1.298 1 2 cbr 1000 ------- 0 0.0 2.0 69 69
r 1.298 0 1 cbr 1000 ------- 0 0.0 2.0 80 80
+ 1.298 1 2 cbr 1000 ------- 0 0.0 2.0 80 80
r 1.308 1 2 cbr 1000 ------- 0 0.0 2.0 68 68
+ 1.312 0 1 cbr 1000 ------- 0 0.0 2.0 82 82
- 1.312 0 1 cbr 1000 ------- 0 0.0 2.0 82 82
r 1.314 0 1 cbr 1000 ------- 0 0.0 2.0 81 81
+ 1.314 1 2 cbr 1000 ------- 0 0.0 2.0 81 81
d 1.314 1 2 cbr 1000 ------- 0 0.0 2.0 81 81
- 1.318 1 2 cbr 1000 ------- 0 0.0 2.0 70 70
r 1.328 1 2 cbr 1000 ------- 0 0.0 2.0 69 69
+ 1.328 0 1 cbr 1000 ------- 0 0.0 2.0 83 83
- 1.328 0 1 cbr 1000 ------- 0 0.0 2.0 83 83
r 1.33 0 1 cbr 1000 ------- 0 0.0 2.0 82 82
+ 1.33 1 2 cbr 1000 ------- 0 0.0 2.0 82 82
- 1.338 1 2 cbr 1000 ------- 0 0.0 2.0 72 72
+ 1.344 0 1 cbr 1000 ------- 0 0.0 2.0 84 84
- 1.344 0 1 cbr 1000 ------- 0 0.0 2.0 84 84
r 1.346 0 1 cbr 1000 ------- 0 0.0 2.0 83 83
+ 1.346 1 2 cbr 1000 ------- 0 0.0 2.0 83 83
r 1.348 1 2 cbr 1000 ------- 0 0.0 2.0 70 70
- 1.358 1 2 cbr 1000 ------- 0 0.0 2.0 73 73
+ 1.36 0 1 cbr 1000 ------- 0 0.0 2.0 85 85
- 1.36 0 1 cbr 1000 ------- 0 0.0 2.0 85 85
r 1.362 0 1 cbr 1000 ------- 0 0.0 2.0 84 84
+ 1.362 1 2 cbr 1000 ------- 0 0.0 2.0 84 84
r 1.368 1 2 cbr 1000 ------- 0 0.0 2.0 72 72
+ 1.376 0 1 cbr 1000 ------- 0 0.0 2.0 86 86
- 1.376 0 1 cbr 1000 ------- 0 0.0 2.0 86 86
- 1.378 1 2 cbr 1000 ------- 0 0.0 2.0 74 74
r 1.378 0 1 cbr 1000 ------- 0 0.0 2.0 85 85
+ 1.378 1 2 cbr 1000 ------- 0 0.0 2.0 85 85
r 1.388 1 2 cbr 1000 ------- 0 0.0 2.0 73 73
+ 1.392 0 1 cbr 1000 ------- 0 0.0 2.0 87 87
- 1.392 0 1 cbr 1000 ------- 0 0.0 2.0 87 87
r 1.394 0 1 cbr 1000 ------- 0 0.0 2.0 86 86
+ 1.394 1 2 cbr 1000 ------- 0 0.0 2.0 86 86
d 1.394 1 2 cbr 1000 ------- 0 0.0 2.0 86 86
- 1.398 1 2 cbr 1000 ------- 0 0.0 2.0 75 75
r 1.408 1 2 cbr 1000 ------- 0 0.0 2.0 74 74
+ 1.408 0 1 cbr 1000 ------- 0 0.0 2.0 88 88
- 1.408 0 1 cbr 1000 ------- 0 0.0 2.0 88 88
r 1.41 0 1 cbr 1000 ------- 0 0.0 2.0 87 87
+ 1.41 1 2 cbr 1000 ------- 0 0.0 2.0 87 87
- 1.418 1 2 cbr 1000 ------- 0 0.0 2.0 77 77
+ 1.424 0 1 cbr 1000 ------- 0 0.0 2.0 89 89
- 1.424 0 1 cbr 1000 ------- 0 0.0 2.0 89 89
r 1.426 0 1 cbr 1000 ------- 0 0.0 2.0 88 88
+ 1.426 1 2 cbr 1000 ------- 0 0.0 2.0 88 88
r 1.428 1 2 cbr 1000 ------- 0 0.0 2.0 75 75
- 1.438 1 2 cbr 1000 ------- 0 0.0 2.0 78 78
+ 1.44 0 1 cbr 1000 ------- 0 0.0 2.0 90 90
- 1.44 0 1 cbr 1000 ------- 0 0.0 2.0 90 90
r 1.442 0 1 cbr 1000 ------- 0 0.0 2.0 89 89
+ 1.442 1 2 cbr 1000 ------- 0 0.0 2.0 89 89
r 1.448 1 2 cbr 1000 ------- 0 0.0 2.0 77 77
+ 1.456 0 1 cbr 1000 ------- 0 0.0 2.0 91 91
- 1.456 0 1 cbr 1000 ------- 0 0.0 2.0 91 91
- 1.458 1 2 cbr 1000 ------- 0 0.0 2.0 79 79
r 1.458 0 1 cbr 1000 ------- 0 0.0 2.0 90 90
+ 1.458 1 2 cbr 1000 ------- 0 0.0 2.0 90 90
r 1.468 1 2 cbr 1000 ------- 0 0.0 2.0 78 78
+ 1.472 0 1 cbr 1000 ------- 0 0.0 2.0 92 92
- 1.472 0 1 cbr 1000 ------- 0 0.0 2.0 92 92
r 1.474 0 1 cbr 1000 ------- 0 0.0 2.0 91 91
+ 1.474 1 2 cbr 1000 ------- 0 0.0 2.0 91 91
d 1.474 1 2 cbr 1000 ------- 0 0.0 2.0 91 91
- 1.478 1 2 cbr 1000 ------- 0 0.0 2.0 80 80
r 1.488 1 2 cbr 1000 ------- 0 0.0 2.0 79 79
+ 1.488 0 1 cbr 1000 ------- 0 0.0 2.0 93 93
- 1.488 0 1 cbr 1000 ------- 0 0.0 2.0 93 93
r 1.49 0 1 cbr 1000 ------- 0 0.0 2.0 92 92
+ 1.49 1 2 cbr 1000 ------- 0 0.0 2.0 92 92
- 1.498 1 2 cbr 1000 ------- 0 0.0 2.0 82 82
+ 1.504 0 1 cbr 1000 ------- 0 0.0 2.0 94 94
- 1.504 0 1 cbr 1000 ------- 0 0.0 2.0 94 94
r 1.506 0 1 cbr 1000 ------- 0 0.0 2.0 93 93
+ 1.506 1 2 cbr 1000 ------- 0 0.0 2.0 93 93
r 1.508 1 2 cbr 1000 ------- 0 0.0 2.0 80 80
- 1.518 1 2 cbr 1000 ------- 0 0.0 2.0 83 83
+ 1.52 0 1 cbr 1000 ------- 0 0.0 2.0 95 95
- 1.52 0 1 cbr 1000 ------- 0 0.0 2.0 95 95
r 1.522 0 1 cbr 1000 ------- 0 0.0 2.0 94 94
+ 1.522 1 2 cbr 1000 ------- 0 0.0 2.0 94 94
r 1.528 1 2 cbr 1000 ------- 0 0.0 2.0 82 82
+ 1.536 0 1 cbr 1000 ------- 0 0.0 2.0 96 96
- 1.536 0 1 cbr 1000 ------- 0 0.0 2.0 96 96
- 1.538 1 2 cbr 1000 ------- 0 0.0 2.0 84 84
r 1.538 0 1 cbr 1000 ------- 0 0.0 2.0 95 95
+ 1.538 1 2 cbr 1000 ------- 0 0.0 2.0 95 95
r 1.548 1 2 cbr 1000 ------- 0 0.0 2.0 83 83
+ 1.552 0 1 cbr 1000 ------- 0 0.0 2.0 97 97
- 1.552 0 1 cbr 1000 ------- 0 0.0 2.0 97 97
r 1.554 0 1 cbr 1000 ------- 0 0.0 2.0 96 96
+ 1.554 1 2 cbr 1000 ------- 0 0.0 2.0 96 96
d 1.554 1 2 cbr 1000 ------- 0 0.0 2.0 96 96
- 1.558 1 2 cbr 1000 ------- 0 0.0 2.0 85 85
r 1.568 1 2 cbr 1000 ------- 0 0.0 2.0 84 84
+ 1.568 0 1 cbr 1000 ------- 0 0.0 2.0 98 98
- 1.568 0 1 cbr 1000 ------- 0 0.0 2.0 98 98
r 1.57 0 1 cbr 1000 ------- 0 0.0 2.0 97 97
+ 1.57 1 2 cbr 1000 ------- 0 0.0 2.0 97 97
- 1.578 1 2 cbr 1000 ------- 0 0.0 2.0 87 87
+ 1.584 0 1 cbr 1000 ------- 0 0.0 2.0 99 99
- 1.584 0 1 cbr 1000 ------- 0 0.0 2.0 99 99
r 1.586 0 1 cbr 1000 ------- 0 0.0 2.0 98 98
+ 1.586 1 2 cbr 1000 ------- 0 0.0 2.0 98 98
r 1.588 1 2 cbr 1000 ------- 0 0.0 2.0 85 85
- 1.598 1 2 cbr 1000 ------- 0 0.0 2.0 88 88
+ 1.6 0 1 cbr 1000 ------- 0 0.0 2.0 100 100
- 1.6 0 1 cbr 1000 ------- 0 0.0 2.0 100 100
r 1.602 0 1 cbr 1000 ------- 0 0.0 2.0 99 99
+ 1.602 1 2 cbr 1000 ------- 0 0.0 2.0 99 99
r 1.608 1 2 cbr 1000 ------- 0 0.0 2.0 87 87
+ 1.616 0 1 cbr 1000 ------- 0 0.0 2.0 101 101
- 1.616 0 1 cbr 1000 ------- 0 0.0 2.0 101 101
- 1.618 1 2 cbr 1000 ------- 0 0.0 2.0 89 89
r 1.618 0 1 cbr 1000 ------- 0 0.0 2.0 100 100
+ 1.618 1 2 cbr 1000 ------- 0 0.0 2.0 100 100
r 1.628 1 2 cbr 1000 ------- 0 0.0 2.0 88 88
+ 1.632 0 1 cbr 1000 ------- 0 0.0 2.0 102 102
- 1.632 0 1 cbr 1000 ------- 0 0.0 2.0 102 102
r 1.634 0 1 cbr 1000 ------- 0 0.0 2.0 101 101
+ 1.634 1 2 cbr 1000 ------- 0 0.0 2.0 101 101
d 1.634 1 2 cbr 1000 ------- 0 0.0 2.0 101 101
- 1.638 1 2 cbr 1000 ------- 0 0.0 2.0 90 90
r 1.648 1 2 cbr 1000 ------- 0 0.0 2.0 89 89
+ 1.648 0 1 cbr 1000 ------- 0 0.0 2.0 103 103
- 1.648 0 1 cbr 1000 ------- 0 0.0 2.0 103 103
r 1.65 0 1 cbr 1000 ------- 0 0.0 2.0 102 102
+ 1.65 1 2 cbr 1000 ------- 0 0.0 2.0 102 102
- 1.658 1 2 cbr 1000 ------- 0 0.0 2.0 92 92
+ 1.664 0 1 cbr 1000 ------- 0 0.0 2.0 104 104
- 1.664 0 1 cbr 1000 ------- 0 0.0 2.0 104 104
r 1.666 0 1 cbr 1000 ------- 0 0.0 2.0 103 103
+ 1.666 1 2 cbr 1000 ------- 0 0.0 2.0 103 103
r 1.668 1 2 cbr 1000 ------- 0 0.0 2.0 90 90
- 1.678 1 2 cbr 1000 ------- 0 0.0 2.0 93 93
+ 1.68 0 1 cbr 1000 ------- 0 0.0 2.0 105 105
- 1.68 0 1 cbr 1000 ------- 0 0.0 2.0 105 105
r 1.682 0 1 cbr 1000 ------- 0 0.0 2.0 104 104
+ 1.682 1 2 cbr 1000 ------- 0 0.0 2.0 104 104
r 1.688 1 2 cbr 1000 ------- 0 0.0 2.0 92 92
+ 1.696 0 1 cbr 1000 ------- 0 0.0 2.0 106 106
- 1.696 0 1 cbr 1000 ------- 0 0.0 2.0 106 106
- 1.698 1 2 cbr 1000 ------- 0 0.0 2.0 94 94
r 1.698 0 1 cbr 1000 ------- 0 0.0 2.0 105 105
+ 1.698 1 2 cbr 1000 ------- 0 0.0 2.0 105 105
r 1.708 1 2 cbr 1000 ------- 0 0.0 2.0 93 93
+ 1.712 0 1 cbr 1000 ------- 0 0.0 2.0 107 107
- 1.712 0 1 cbr 1000 ------- 0 0.0 2.0 107 107
r 1.714 0 1 cbr 1000 ------- 0 0.0 2.0 106 106
+ 1.714 1 2 cbr 1000 ------- 0 0.0 2.0 106 106
d 1.714 1 2 cbr 1000 ------- 0 0.0 2.0 106 106
- 1.718 1 2 cbr 1000 ------- 0 0.0 2.0 95 95
r 1.728 1 2 cbr 1000 ------- 0 0.0 2.0 94 94
+ 1.728 0 1 cbr 1000 ------- 0 0.0 2.0 108 108
- 1.728 0 1 cbr 1000 ------- 0 0.0 2.0 108 108
r 1.73 0 1 cbr 1000 ------- 0 0.0 2.0 107 107
+ 1.73 1 2 cbr 1000 ------- 0 0.0 2.0 107 107
- 1.738 1 2 cbr 1000 ------- 0 0.0 2.0 97 97
+ 1.744 0 1 cbr 1000 ------- 0 0.0 2.0 109 109
- 1.744 0 1 cbr 1000 ------- 0 0.0 2.0 109 109
r 1.746 0 1 cbr 1000 ------- 0 0.0 2.0 108 108
+ 1.746 1 2 cbr 1000 ------- 0 0.0 2.0 108 108
r 1.748 1 2 cbr 1000 ------- 0 0.0 2.0 95 95
- 1.758 1 2 cbr 1000 ------- 0 0.0 2.0 98 98
+ 1.76 0 1 cbr 1000 ------- 0 0.0 2.0 110 110
- 1.76 0 1 cbr 1000 ------- 0 0.0 2.0 110 110
r 1.762 0 1 cbr 1000 ------- 0 0.0 2.0 109 109
+ 1.762 1 2 cbr 1000 ------- 0 0.0 2.0 109 109
r 1.768 1 2 cbr 1000 ------- 0 0.0 2.0 97 97
+ 1.776 0 1 cbr 1000 ------- 0 0.0 2.0 111 111
- 1.776 0 1 cbr 1000 ------- 0 0.0 2.0 111 111
- 1.778 1 2 cbr 1000 ------- 0 0.0 2.0 99 99
r 1.778 0 1 cbr 1000 ------- 0 0.0 2.0 110 110
+ 1.778 1 2 cbr 1000 ------- 0 0.0 2.0 110 110
r 1.788 1 2 cbr 1000 ------- 0 0.0 2.0 98 98
+ 1.792 0 1 cbr 1000 ------- 0 0.0 2.0 112 112
- 1.792 0 1 cbr 1000 ------- 0 0.0 2.0 112 112
r 1.794 0 1 cbr 1000 ------- 0 0.0 2.0 111 111
+ 1.794 1 2 cbr 1000 ------- 0 0.0 2.0 111 111
d 1.794 1 2 cbr 1000 ------- 0 0.0 2.0 111 111
- 1.798 1 2 cbr 1000 ------- 0 0.0 2.0 100 100
r 1.808 1 2 cbr 1000 ------- 0 0.0 2.0 99 99
+ 1.808 0 1 cbr 1000 ------- 0 0.0 2.0 113 113
- 1.808 0 1 cbr 1000 ------- 0 0.0 2.0 113 113
r 1.81 0 1 cbr 1000 ------- 0 0.0 2.0 112 112
+ 1.81 1 2 cbr 1000 ------- 0 0.0 2.0 112 112
- 1.818 1 2 cbr 1000 ------- 0 0.0 2.0 102 102
+ 1.824 0 1 cbr 1000 ------- 0 0.0 2.0 114 114
- 1.824 0 1 cbr 1000 ------- 0 0.0 2.0 114 114
r 1.826 0 1 cbr 1000 ------- 0 0.0 2.0 113 113
+ 1.826 1 2 cbr 1000 ------- 0 0.0 2.0 113 113
r 1.828 1 2 cbr 1000 ------- 0 0.0 2.0 100 100
- 1.838 1 2 cbr 1000 ------- 0 0.0 2.0 103 103
+ 1.84 0 1 cbr 1000 ------- 0 0.0 2.0 115 115
- 1.84 0 1 cbr 1000 ------- 0 0.0 2.0 115 115
r 1.842 0 1 cbr 1000 ------- 0 0.0 2.0 114 114
+ 1.842 1 2 cbr 1000 ------- 0 0.0 2.0 114 114
r 1.848 1 2 cbr 1000 ------- 0 0.0 2.0 102 102
+ 1.856 0 1 cbr 1000 ------- 0 0.0 2.0 116 116
- 1.856 0 1 cbr 1000 ------- 0 0.0 2.0 116 116
- 1.858 1 2 cbr 1000 ------- 0 0.0 2.0 104 104
r 1.858 0 1 cbr 1000 ------- 0 0.0 2.0 115 115
+ 1.858 1 2 cbr 1000 ------- 0 0.0 2.0 115 115
r 1.868 1 2 cbr 1000 ------- 0 0.0 2.0 103 103
+ 1.872 0 1 cbr 1000 ------- 0 0.0 2.0 117 117
- 1.872 0 1 cbr 1000 ------- 0 0.0 2.0 117 117
r 1.874 0 1 cbr 1000 ------- 0 0.0 2.0 116 116