V -t * -v 1.0a5 -a 0
A -t * -n 1 -p 0 -o 0x7fffffff -c 30 -a 1
A -t * -h 1 -m 1073741823 -s 0
n -t * -a 0 -s 0 -S UP -v circle -c black -i black
n -t * -a 1 -s 1 -S UP -v circle -c black -i black
n -t * -a 2 -s 2 -S UP -v circle -c black -i black
l -t * -s 0 -d 1 -S UP -r 1000000 -D 0.01 -c black
l -t * -s 1 -d 2 -S UP -r 400000 -D 0.01 -c black
+ -t 0 -s 0 -d 1 -p cbr -e 1000 -c 0 -i 0 -a 0 -x {0.0 2.0 0 ------- null}
- -t 0 -s 0 -d 1 -p cbr -e 1000 -c 0 -i 0 -a 0 -x {0.0 2.0 0 ------- null}
h -t 0 -s 0 -d 1 -p cbr -e 1000 -c 0 -i 0 -a 0 -x {0.0 2.0 -1 ------- null}
+ -t 0.016 -s 0 -d 1 -p cbr -e 1000 -c 0 -i 1 -a 0 -x {0.0 2.0 1 ------- null}
- -t 0.016 -s 0 -d 1 -p cbr -e 1000 -c 0 -i 1 -a 0 -x {0.0 2.0 1 ------- null}
h -t 0.016 -s 0 -d 1 -p cbr -e 1000 -c 0 -i 1 -a 0 -x {0.0 2.0 -1 ------- null}
r -t 0.018 -s 0 -d 1 -p cbr -e 1000 -c 0 -i 0 -a 0 -x {0.0 2.0 0 ------- null}
+ -t 0.018 -s 1 -d 2 -p cbr -e 1000 -c 0 -i 0 -a 0 -x {0.0 2.0 0 ------- null}
- -t 0.018 -s 1 -d 2 -p cbr -e 1000 -c 0 -i 0 -a 0 -x {0.0 2.0 0 ------- null}
h -t 0.018 -s 1 -d 2 -p cbr -e 1000 -c 0 -i 0 -a 0 -x {0.0 2.0 -1 ------- null}
+ -t 0.032 -s 0 -d 1 -p cbr -e 1000 -c 0 -i 2 -a 0 -x {0.0 2.0 2 ------- null}
- -t 0.032 -s 0 -d 1 -p cbr -e 1000 -c 0 -i 2 -a 0 -x {0.0 2.0 2 ------- null}
h -t 0.032 -s 0 -d 1 -p cbr -e 1000 -c 0 -i 2 -a 0 -x {0.0 2.0 -1 ------- null}
r -t 0.034 -s 0 -d 1 -p cbr -e 1000 -c 0 -i 1 -a 0 -x {0.0 2.0 1 ------- null}
+ -t 0.034 -s 1 -d 2 -p cbr -e 1000 -c 0 -i 1 -a 0 -x {0.0 2.0 1 ------- null}
- -t 0.038 -s 1 -d 2 -p cbr -e 1000 -c 0 -i 1 -a 0 -x {0.0 2.0 1 ------- null}
h -t 0.038 -s 1 -d 2 -p cbr -e 1000 -c 0 -i 1 -a 0 -x {0.0 2.0 -1 ------- null}
r -t 0.048 -s 1 -d 2 -p cbr -e 1000 -c 0 -i 0 -a 0 -x {0.0 2.0 0 ------- null}
+ -t 0.048 -s 0 -d 1 -p cbr -e 1000 -c 0 -i 3 -a 0 -x {0.0 2.0 3 ------- null}
- -t 0.048 -s 0 -d 1 -p cbr -e 1000 -c 0 -i 3 -a 0 -x {0.0 2.0 3 ------- null}
h -t 0.048 -s 0 -d 1 -p cbr -e 1000 -c 0 -i 3 -a 0 -x {0.0 2.0 -1 ------- null}
r -t 0.05 -s 0 -d 1 -p cbr -e 1000 -c 0 -i 2 -a 0 -x {0.0 2.0 2 ------- null}
+ -t 0.05 -s 1 -d 2 -p cbr -e 1000 -c 0 -i 2 -a 0 -x {0.0 2.0 2 ------- null}
- -t 0.058 -s 1 -d 2 -p cbr -e 1000 -c 0 -i 2 -a 0 -x {0.0 2.0 2 ------- null}
h -t 0.058 -s 1 -d 2 -p cbr -e 1000 -c 0 -i 2 -a 0 -x {0.0 2.0 -1 ------- null}
+ -t 0.064 -s 0 -d 1 -p cbr -e 1000 -c 0 -i 4 -a 0 -x {0.0 2.0 4 ------- null}
- -t 0.064 -s 0 -d 1 -p cbr -e 1000 -c 0 -i 4 -a 0 -x {0.0 2.0 4 ------- null}
h -t 0.064 -s 0 -d 1 -p cbr -e 1000 -c 0 -i 4 -a 0 -x {0.0 2.0 -1 ------- null}
r -t 0.066 -s 0 -d 1 -p cbr -e 1000 -c 0 -i 3 -a 0 -x {0.0 2.0 3 ------- null}
+ -t 0.066 -s 1 -d 2 -p cbr -e 1000 -c 0 -i 3 -a 0 -x {0.0 2.0 3 ------- null}
r -t 0.068 -s 1 -d 2 -p cbr -e 1000 -c 0 -i 1 -a 0 -x {0.0 2.0 1 ------- null}
- -t 0.078 -s 1 -d 2 -p cbr -e 1000 -c 0 -i 3 -a 0 -x {0.0 2.0 3 ------- null}
h -t 0.078 -s 1 -d 2 -p cbr -e 1000 -c 0 -i 3 -a 0 -x {0.0 2.0 -1 ------- null}
+ -t 0.08 -s 0 -d 1 -p cbr -e 1000 -c 0 -i 5 -a 0 -x {0.0 2.0 5 ------- null}
- -t 0.08 -s 0 -d 1 -p cbr -e 1000 -c 0 -i 5 -a 0 -x {0.0 2.0 5 ------- null}
h -t 0.08 -s 0 -d 1 -p cbr -e 1000 -c 0 -i 5 -a 0 -x {0.0 2.0 -1 ------- null}
r -t 0.082 -s 0 -d 1 -p cbr -e 1000 -c 0 -i 4 -a 0 -x {0.0 2.0 4 ------- null}
+ -t 0.082 -s 1 -d 2 -p cbr -e 1000 -c 0 -i 4 -a 0 -x {0.0 2.0 4 ------- null}
r -t 0.088 -s 1 -d 2 -p cbr -e 1000 -c 0 -i 2 -a 0 -x {0.0 2.0 2 ------- null}
+ -t 0.096 -s 0 -d 1 -p cbr -e 1000 -c 0 -i 6 -a 0 -x {0.0 2.0 6 ------- null}
- -t 0.096 -s 0 -d 1 -p cbr -e 1000 -c 0 -i 6 -a 0 -x {0.0 2.0 6 ------- null}
h -t 0.096 -s 0 -d 1 -p cbr -e 1000 -c 0 -i 6 -a 0 -x {0.0 2.0 -1 ------- null}
r -t 0.098 -s 0 -d 1 -p cbr -e 1000 -c 0 -i 5 -a 0 -x {0.0 2.0 5 ------- null}
+ -t 0.098 -s 1 -d 2 -p cbr -e 1000 -c 0 -i 5 -a 0 -x {0.0 2.0 5 ------- null}
- -t 0.098 -s 1 -d 2 -p cbr -e 1000 -c 0 -i 4 -a 0 -x {0.0 2.0 4 ------- null}
h -t 0.098 -s 1 -d 2 -p cbr -e 1000 -c 0 -i 4 -a 0 -x {0.0 2.0 -1 ------- null}
r -t 0.108 -s 1 -d 2 -p cbr -e 1000 -c 0 -i 3 -a 0 -x {0.0 2.0 3 ------- null}
+ -t 0.112 -s 0 -d 1 -p cbr -e 1000 -c 0 -i 7 -a 0 -x {0.0 2.0 7 ------- null}
- -t 0.112 -s 0 -d 1 -p cbr -e 1000 -c 0 -i 7 -a 0 -x {0.0 2.0 7 ------- null}
h -t 0.112 -s 0 -d 1 -p cbr -e 1000 -c 0 -i 7 -a 0 -x {0.0 2.0 -1 ------- null}
r -t 0.114 -s 0 -d 1 -p cbr -e 1000 -c 0 -i 6 -a 0 -x {0.0 2.0 6 ------- null}
+ -t 0.114 -s 1 -d 2 -p cbr -e 1000 -c 0 -i 6 -a 0 -x {0.0 2.0 6 ------- null}
- -t 0.118 -s 1 -d 2 -p cbr -e 1000 -c 0 -i 5 -a 0 -x {0.0 2.0 5 ------- null}
h -t 0.118 -s 1 -d 2 -p cbr -e 1000 -c 0 -i 5 -a 0 -x {0.0 2.0 -1 ------- null}
r -t 0.128 -s 1 -d 2 -p cbr -e 1000 -c 0 -i 4 -a 0 -x {0.0 2.0 4 ------- null}
+ -t 0.128 -s 0 -d 1 -p cbr -e 1000 -c 0 -i 8 -a 0 -x {0.0 2.0 8 ------- null}
- -t 0.128 -s 0 -d 1 -p cbr -e 1000 -c 0 -i 8 -a 0 -x {0.0 2.0 8 ------- null}
h -t 0.128 -s 0 -d 1 -p cbr -e 1000 -c 0 -i 8 -a 0 -x {0.0 2.0 -1 ------- null}
r -t 0.13 -s 0 -d 1 -p cbr -e 1000 -c 0 -i 7 -a 0 -x {0.0 2.0 7 ------- null}
+ -t 0.13 -s 1 -d 2 -p cbr -e 1000 -c 0 -i 7 -a 0 -x {0.0 2.0 7 ------- null}
- -t 0.138 -s 1 -d 2 -p cbr -e 1000 -c 0 -i 6 -a 0 -x {0.0 2.0 6 ------- null}
h -t 0.138 -s 1 -d 2 -p cbr -e 1000 -c 0 -i 6 -a 0 -x {0.0 2.0 -1 ------- null}
+ -t 0.144 -s 0 -d 1 -p cbr -e 1000 -c 0 -i 9 -a 0 -x {0.0 2.0 9 ------- null}
- -t 0.144 -s 0 -d 1 -p cbr -e 1000 -c 0 -i 9 -a 0 -x {0.0 2.0 9 ------- null}
h -t 0.144 -s 0 -d 1 -p cbr -e 1000 -c 0 -i 9 -a 0 -x {0.0 2.0 -1 ------- null}
r -t 0.146 -s 0 -d 1 -p cbr -e 1000 -c 0 -i 8 -a 0 -x {0.0 2.0 8 ------- null}
+ -t 0.146 -s 1 -d 2 -p cbr -e 1000 -c 0 -i 8 -a 0 -x {0.0 2.0 8 ------- null}
r -t 0.148 -s 1 -d 2 -p cbr -e 1000 -c 0 -i 5 -a 0 -x {0.0 2.0 5 ------- null}
- -t 0.158 -s 1 -d 2 -p cbr -e 1000 -c 0 -i 7 -a 0 -x {0.0 2.0 7 ------- null}
h -t 0.158 -s 1 -d 2 -p cbr -e 1000 -c 0 -i 7 -a 0 -x {0.0 2.0 -1 ------- null}
+ -t 0.16 -s 0 -d 1 -p cbr -e 1000 -c 0 -i 10 -a 0 -x {0.0 2.0 10 ------- null}
- -t 0.16 -s 0 -d 1 -p cbr -e 1000 -c 0 -i 10 -a 0 -x {0.0 2.0 10 ------- null}
h -t 0.16 -s 0 -d 1 -p cbr -e 1000 -c 0 -i 10 -a 0 -x {0.0 2.0 -1 ------- null}
r -t 0.162 -s 0 -d 1 -p cbr -e 1000 -c 0 -i 9 -a 0 -x {0.0 2.0 9 ------- null}
+ -t 0.162 -s 1 -d 2 -p cbr -e 1000 -c 0 -i 9 -a 0 -x {0.0 2.0 9 ------- null}
r -t 0.168 -s 1 -d 2 -p cbr -e 1000 -c 0 -i 6 -a 0 -x {0.0 2.0 6 ------- null}
+ -t 0.176 -s 0 -d 1 -p cbr -e 1000 -c 0 -i 11 -a 0 -x {0.0 2.0 11 ------- null}
- -t 0.176 -s 0 -d 1 -p cbr -e 1000 -c 0 -i 11 -a 0 -x {0.0 2.0 11 ------- null}
h -t 0.176 -s 0 -d 1 -p cbr -e 1000 -c 0 -i 11 -a 0 -x {0.0 2.0 -1 ------- null}
- -t 0.178 -s 1 -d 2 -p cbr -e 1000 -c 0 -i 8 -a 0 -x {0.0 2.0 8 ------- null}
h -t 0.178 -s 1 -d 2 -p cbr -e 1000 -c 0 -i 8 -a 0 -x {0.0 2.0 -1 ------- null}
r -t 0.178 -s 0 -d 1 -p cbr -e 1000 -c 0 -i 10 -a 0 -x {0.0 2.0 10 ------- null}
+ -t 0.178 -s 1 -d 2 -p cbr -e 1000 -c 0 -i 10 -a 0 -x {0.0 2.0 10 ------- null}
r -t 0.188 -s 1 -d 2 -p cbr -e 1000 -c 0 -i 7 -a 0 -x {0.0 2.0 7 ------- null}
+ -t 0.192 -s 0 -d 1 -p cbr -e 1000 -c 0 -i 12 -a 0 -x {0.0 2.0 12 ------- null}
- -t 0.192 -s 0 -d 1 -p cbr -e 1000 -c 0 -i 12 -a 0 -x {0.0 2.0 12 ------- null}
h -t 0.192 -s 0 -d 1 -p cbr -e 1000 -c 0 -i 12 -a 0 -x {0.0 2.0 -1 ------- null}
r -t 0.194 -s 0 -d 1 -p cbr -e 1000 -c 0 -i 11 -a 0 -x {0.0 2.0 11 ------- null}
+ -t 0.194 -s 1 -d 2 -p cbr -e 1000 -c 0 -i 11 -a 0 -x {0.0 2.0 11 ------- null}
- -t 0.198 -s 1 -d 2 -p cbr -e 1000 -c 0 -i 9 -a 0 -x {0.0 2.0 9 ------- null}
h -t 0.198 -s 1 -d 2 -p cbr -e 1000 -c 0 -i 9 -a 0 -x {0.0 2.0 -1 ------- null}
r -t 0.208 -s 1 -d 2 -p cbr -e 1000 -c 0 -i 8 -a 0 -x {0.0 2.0 8 ------- null}
+ -t 0.208 -s 0 -d 1 -p cbr -e 1000 -c 0 -i 13 -a 0 -x {0.0 2.0 13 ------- null}
- -t 0.208 -s 0 -d 1 -p cbr -e 1000 -c 0 -i 13 -a 0 -x {0.0 2.0 13 ------- null}
h -t 0.208 -s 0 -d 1 -p cbr -e 1000 -c 0 -i 13 -a 0 -x {0.0 2.0 -1 ------- null}
r -t 0.21 -s 0 -d 1 -p cbr -e 1000 -c 0 -i 12 -a 0 -x {0.0 2.0 12 ------- null}
+ -t 0.21 -s 1 -d 2 -p cbr -e 1000 -c 0 -i 12 -a 0 -x {0.0 2.0 12 ------- null}
- -t 0.218 -s 1 -d 2 -p cbr -e 1000 -c 0 -i 10 -a 0 -x {0.0 2.0 10 ------- null}
h -t 0.218 -s 1 -d 2 -p cbr -e 1000 -c 0 -i 10 -a 0 -x {0.0 2.0 -1 ------- null}
+ -t 0.224 -s 0 -d 1 -p cbr -e 1000 -c 0 -i 14 -a 0 -x {0.0 2.0 14 ------- null}
- -t 0.224 -s 0 -d 1 -p cbr -e 1000 -c 0 -i 14 -a 0 -x {0.0 2.0 14 ------- null}
h -t 0.224 -s 0 -d 1 -p cbr -e 1000 -c 0 -i 14 -a 0 -x {0.0 2.0 -1 ------- null}
r -t 0.226 -s 0 -d 1 -p cbr -e 1000 -c 0 -i 13 -a 0 -x {0.0 2.0 13 ------- null}
+ -t 0.226 -s 1 -d 2 -p cbr -e 1000 -c 0 -i 13 -a 0 -x {0.0 2.0 13 ------- null}
r -t 0.228 -s 1 -d 2 -p cbr -e 1000 -c 0 -i 9 -a 0 -x {0.0 2.0 9 ------- null}
- -t 0.238 -s 1 -d 2 -p cbr -e 1000 -c 0 -i 11 -a 0 -x {0.0 2.0 11 ------- null}
h -t 0.238 -s 1 -d 2 -p cbr -e 1000 -c 0 -i 11 -a 0 -x {0.0 2.0 -1 ------- null}
+ -t 0.24 -s 0 -d 1 -p cbr -e 1000 -c 0 -i 15 -a 0 -x {0.0 2.0 15 ------- null}
- -t 0.24 -s 0 -d 1 -p cbr -e 1000 -c 0 -i 15 -a 0 -x {0.0 2.0 15 ------- null}
h -t 0.24 -s 0 -d 1 -p cbr -e 1000 -c 0 -i 15 -a 0 -x {0.0 2.0 -1 ------- null}
r -t 0.242 -s 0 -d 1 -p cbr -e 1000 -c 0 -i 14 -a 0 -x {0.0 2.0 14 ------- null}
+ -t 0.242 -s 1 -d 2 -p cbr -e 1000 -c 0 -i 14 -a 0 -x {0.0 2.0 14 ------- null}
r -t 0.248 -s 1 -d 2 -p cbr -e 1000 -c 0 -i 10 -a 0 -x {0.0 2.0 10 ------- null}
+ -t 0.256 -s 0 -d 1 -p cbr -e 1000 -c 0 -i 16 -a 0 -x {0.0 2.0 16 ------- null}
- -t 0.256 -s 0 -d 1 -p cbr -e 1000 -c 0 -i 16 -a 0 -x {0.0 2.0 16 ------- null}
h -t 0.256 -s 0 -d 1 -p cbr -e 1000 -c 0 -i 16 -a 0 -x {0.0 2.0 -1 ------- null}
- -t 0.258 -s 1 -d 2 -p cbr -e 1000 -c 0 -i 12 -a 0 -x {0.0 2.0 12 ------- null}
h -t 0.258 -s 1 -d 2 -p cbr -e 1000 -c 0 -i 12 -a 0 -x {0.0 2.0 -1 ------- null}
r -t 0.258 -s 0 -d 1 -p cbr -e 1000 -c 0 -i 15 -a 0 -x {0.0 2.0 15 ------- null}
+ -t 0.258 -s 1 -d 2 -p cbr -e 1000 -c 0 -i 15 -a 0 -x {0.0 2.0 15 ------- null}
r -t 0.268 -s 1 -d 2 -p cbr -e 1000 -c 0 -i 11 -a 0 -x {0.0 2.0 11 ------- null}
+ -t 0.272 -s 0 -d 1 -p cbr -e 1000 -c 0 -i 17 -a 0 -x {0.0 2.0 17 ------- null}
- -t 0.272 -s 0 -d 1 -p cbr -e 1000 -c 0 -i 17 -a 0 -x {0.0 2.0 17 ------- null}
h -t 0.272 -s 0 -d 1 -p cbr -e 1000 -c 0 -i 17 -a 0 -x {0.0 2.0 -1 ------- null}
r -t 0.274 -s 0 -d 1 -p cbr -e 1000 -c 0 -i 16 -a 0 -x {0.0 2.0 16 ------- null}
+ -t 0.274 -s 1 -d 2 -p cbr -e 1000 -c 0 -i 16 -a 0 -x {0.0 2.0 16 ------- null}
- -t 0.278 -s 1 -d 2 -p cbr -e 1000 -c 0 -i 13 -a 0 -x {0.0 2.0 13 ------- null}
h -t 0.278 -s 1 -d 2 -p cbr -e 1000 -c 0 -i 13 -a 0 -x {0.0 2.0 -1 ------- null}
r -t 0.288 -s 1 -d 2 -p cbr -e 1000 -c 0 -i 12 -a 0 -x {0.0 2.0 12 ------- null}
+ -t 0.288 -s 0 -d 1 -p cbr -e 1000 -c 0 -i 18 -a 0 -x {0.0 2.0 18 ------- null}
- -t 0.288 -s 0 -d 1 -p cbr -e 1000 -c 0 -i 18 -a 0 -x {0.0 2.0 18 ------- null}
h -t 0.288 -s 0 -d 1 -p cbr -e 1000 -c 0 -i 18 -a 0 -x {0.0 2.0 -1 ------- null}
r -t 0.29 -s 0 -d 1 -p cbr -e 1000 -c 0 -i 17 -a 0 -x {0.0 2.0 17 ------- null}
+ -t 0.29 -s 1 -d 2 -p cbr -e 1000 -c 0 -i 17 -a 0 -x {0.0 2.0 17 ------- null}
- -t 0.298 -s 1 -d 2 -p cbr -e 1000 -c 0 -i 14 -a 0 -x {0.0 2.0 14 ------- null}
h -t 0.298 -s 1 -d 2 -p cbr -e 1000 -c 0 -i 14 -a 0 -x {0.0 2.0 -1 ------- null}
+ -t 0.304 -s 0 -d 1 -p cbr -e 1000 -c 0 -i 19 -a 0 -x {0.0 2.0 19 ------- null}
- -t 0.304 -s 0 -d 1 -p cbr -e 1000 -c 0 -i 19 -a 0 -x {0.0 2.0 19 ------- null}
h -t 0.304 -s 0 -d 1 -p cbr -e 1000 -c 0 -i 19 -a 0 -x {0.0 2.0 -1 ------- null}
r -t 0.306 -s 0 -d 1 -p cbr -e 1000 -c 0 -i 18 -a 0 -x {0.0 2.0 18 ------- null}
+ -t 0.306 -s 1 -d 2 -p cbr -e 1000 -c 0 -i 18 -a 0 -x {0.0 2.0 18 ------- null}
r -t 0.308 -s 1 -d 2 -p cbr -e 1000 -c 0 -i 13 -a 0 -x {0.0 2.0 13 ------- null}
- -t 0.318 -s 1 -d 2 -p cbr -e 1000 -c 0 -i 15 -a 0 -x {0.0 2.0 15 ------- null}
h -t 0.318 -s 1 -d 2 -p cbr -e 1000 -c 0 -i 15 -a 0 -x {0.0 2.0 -1 ------- null}
+ -t 0.32 -s 0 -d 1 -p cbr -e 1000 -c 0 -i 20 -a 0 -x {0.0 2.0 20 ------- null}
- -t 0.32 -s 0 -d 1 -p cbr -e 1000 -c 0 -i 20 -a 0 -x {0.0 2.0 20 ------- null}
h -t 0.32 -s 0 -d 1 -p cbr -e 1000 -c 0 -i 20 -a 0 -x {0.0 2.0 -1 ------- null}
r -t 0.322 -s 0 -d 1 -p cbr -e 1000 -c 0 -i 19 -a 0 -x {0.0 2.0 19 ------- null}
+ -t 0.322 -s 1 -d 2 -p cbr -e 1000 -c 0 -i 19 -a 0 -x {0.0 2.0 19 ------- null}
r -t 0.328 -s 1 -d 2 -p cbr -e 1000 -c 0 -i 14 -a 0 -x {0.0 2.0 14 ------- null}
+ -t 0.336 -s 0 -d 1 -p cbr -e 1000 -c 0 -i 21 -a 0 -x {0.0 2.0 21 ------- null}
- -t 0.336 -s 0 -d 1 -p cbr -e 1000 -c 0 -i 21 -a 0 -x {0.0 2.0 21 ------- null}
h -t 0.336 -s 0 -d 1 -p cbr -e 1000 -c 0 -i 21 -a 0 -x {0.0 2.0 -1 ------- null}
- -t 0.338 -s 1 -d 2 -p cbr -e 1000 -c 0 -i 16 -a 0 -x {0.0 2.0 16 ------- null}
h -t 0.338 -s 1 -d 2 -p cbr -e 1000 -c 0 -i 16 -a 0 -x {0.0 2.0 -1 ------- null}
r -t 0.338 -s 0 -d 1 -p cbr -e 1000 -c 0 -i 20 -a 0 -x {0.0 2.0 20 ------- null}
+ -t 0.338 -s 1 -d 2 -p cbr -e 1000 -c 0 -i 20 -a 0 -x {0.0 2.0 20 ------- null}
r -t 0.348 -s 1 -d 2 -p cbr -e 1000 -c 0 -i 15 -a 0 -x {0.0 2.0 15 ------- null}
+ -t 0.352 -s 0 -d 1 -p cbr -e 1000 -c 0 -i 22 -a 0 -x {0.0 2.0 22 ------- null}
- -t 0.352 -s 0 -d 1 -p cbr -e 1000 -c 0 -i 22 -a 0 -x {0.0 2.0 22 ------- null}
h -t 0.352 -s 0 -d 1 -p cbr -e 1000 -c 0 -i 22 -a 0 -x {0.0 2.0 -1 ------- null}
r -t 0.354 -s 0 -d 1 -p cbr -e 1000 -c 0 -i 21 -a 0 -x {0.0 2.0 21 ------- null}
+ -t 0.354 -s 1 -d 2 -p cbr -e 1000 -c 0 -i 21 -a 0 -x {0.0 2.0 21 ------- null}
- -t 0.358 -s 1 -d 2 -p cbr -e 1000 -c 0 -i 17 -a 0 -x {0.0 2.0 17 ------- null}
h -t 0.358 -s 1 -d 2 -p cbr -e 1000 -c 0 -i 17 -a 0 -x {0.0 2.0 -1 ------- null}
r -t 0.368 -s 1 -d 2 -p cbr -e 1000 -c 0 -i 16 -a 0 -x {0.0 2.0 16 ------- null}
+ -t 0.368 -s 0 -d 1 -p cbr -e 1000 -c 0 -i 23 -a 0 -x {0.0 2.0 23 ------- null}
- -t 0.368 -s 0 -d 1 -p cbr -e 1000 -c 0 -i 23 -a 0 -x {0.0 2.0 23 ------- null}
h -t 0.368 -s 0 -d 1 -p cbr -e 1000 -c 0 -i 23 -a 0 -x {0.0 2.0 -1 ------- null}
r -t 0.37 -s 0 -d 1 -p cbr -e 1000 -c 0 -i 22 -a 0 -x {0.0 2.0 22 ------- null}
+ -t 0.37 -s 1 -d 2 -p cbr -e 1000 -c 0 -i 22 -a 0 -x {0.0 2.0 22 ------- null}
- -t 0.378 -s 1 -d 2 -p cbr -e 1000 -c 0 -i 18 -a 0 -x {0.0 2.0 18 ------- null}
h -t 0.378 -s 1 -d 2 -p cbr -e 1000 -c 0 -i 18 -a 0 -x {0.0 2.0 -1 ------- null}
+ -t 0.384 -s 0 -d 1 -p cbr -e 1000 -c 0 -i 24 -a 0 -x {0.0 2.0 24 ------- null}
- -t 0.384 -s 0 -d 1 -p cbr -e 1000 -c 0 -i 24 -a 0 -x {0.0 2.0 24 ------- null}
h -t 0.384 -s 0 -d 1 -p cbr -e 1000 -c 0 -i 24 -a 0 -x {0.0 2.0 -1 ------- null}
r -t 0.386 -s 0 -d 1 -p cbr -e 1000 -c 0 -i 23 -a 0 -x {0.0 2.0 23 ------- null}
+ -t 0.386 -s 1 -d 2 -p cbr -e 1000 -c 0 -i 23 -a 0 -x {0.0 2.0 23 ------- null}
r -t 0.388 -s 1 -d 2 -p cbr -e 1000 -c 0 -i 17 -a 0 -x {0.0 2.0 17 ------- null}
- -t 0.398 -s 1 -d 2 -p cbr -e 1000 -c 0 -i 19 -a 0 -x {0.0 2.0 19 ------- null}
h -t 0.398 -s 1 -d 2 -p cbr -e 1000 -c 0 -i 19 -a 0 -x {0.0 2.0 -1 ------- null}
+ -t 0.4 -s 0 -d 1 -p cbr -e 1000 -c 0 -i 25 -a 0 -x {0.0 2.0 25 ------- null}
- -t 0.4 -s 0 -d 1 -p cbr -e 1000 -c 0 -i 25 -a 0 -x {0.0 2.0 25 ------- null}
h -t 0.4 -s 0 -d 1 -p cbr -e 1000 -c 0 -i 25 -a 0 -x {0.0 2.0 -1 ------- null}
r -t 0.402 -s 0 -d 1 -p cbr -e 1000 -c 0 -i 24 -a 0 -x {0.0 2.0 24 ------- null}
+ -t 0.402 -s 1 -d 2 -p cbr -e 1000 -c 0 -i 24 -a 0 -x {0.0 2.0 24 ------- null}
r -t 0.408 -s 1 -d 2 -p cbr -e 1000 -c 0 -i 18 -a 0 -x {0.0 2.0 18 ------- null}
+ -t 0.416 -s 0 -d 1 -p cbr -e 1000 -c 0 -i 26 -a 0 -x {0.0 2.0 26 ------- null}
- -t 0.416 -s 0 -d 1 -p cbr -e 1000 -c 0 -i 26 -a 0 -x {0.0 2.0 26 ------- null}
h -t 0.416 -s 0 -d 1 -p cbr -e 1000 -c 0 -i 26 -a 0 -x {0.0 2.0 -1 ------- null}
- -t 0.418 -s 1 -d 2 -p cbr -e 1000 -c 0 -i 20 -a 0 -x {0.0 2.0 20 ------- null}
h -t 0.418 -s 1 -d 2 -p cbr -e 1000 -c 0 -i 20 -a 0 -x {0.0 2.0 -1 ------- null}
r -t 0.418 -s 0 -d 1 -p cbr -e 1000 -c 0 -i 25 -a 0 -x {0.0 2.0 25 ------- null}
+ -t 0.418 -s 1 -d 2 -p cbr -e 1000 -c 0 -i 25 -a 0 -x {0.0 2.0 25 ------- null}
r -t 0.428 -s 1 -d 2 -p cbr -e 1000 -c 0 -i 19 -a 0 -x {0.0 2.0 19 ------- null}
+ -t 0.432 -s 0 -d 1 -p cbr -e 1000 -c 0 -i 27 -a 0 -x {0.0 2.0 27 ------- null}
- -t 0.432 -s 0 -d 1 -p cbr -e 1000 -c 0 -i 27 -a 0 -x {0.0 2.0 27 ------- null}
h -t 0.432 -s 0 -d 1 -p cbr -e 1000 -c 0 -i 27 -a 0 -x {0.0 2.0 -1 ------- null}
r -t 0.434 -s 0 -d 1 -p cbr -e 1000 -c 0 -i 26 -a 0 -x {0.0 2.0 26 ------- null}
+ -t 0.434 -s 1 -d 2 -p cbr -e 1000 -c 0 -i 26 -a 0 -x {0.0 2.0 26 ------- null}
- -t 0.438 -s 1 -d 2 -p cbr -e 1000 -c 0 -i 21 -a 0 -x {0.0 2.0 21 ------- null}
h -t 0.438 -s 1 -d 2 -p cbr -e 1000 -c 0 -i 21 -a 0 -x {0.0 2.0 -1 ------- null}
r -t 0.448 -s 1 -d 2 -p cbr -e 1000 -c 0 -i 20 -a 0 -x {0.0 2.0 20 ------- null}
+ -t 0.448 -s 0 -d 1 -p cbr -e 1000 -c 0 -i 28 -a 0 -x {0.0 2.0 28 ------- null}
- -t 0.448 -s 0 -d 1 -p cbr -e 1000 -c 0 -i 28 -a 0 -x {0.0 2.0 28 ------- null}
h -t 0.448 -s 0 -d 1 -p cbr -e 1000 -c 0 -i 28 -a 0 -x {0.0 2.0 -1 ------- null}
r -t 0.45 -s 0 -d 1 -p cbr -e 1000 -c 0 -i 27 -a 0 -x {0.0 2.0 27 ------- null}
+ -t 0.45 -s 1 -d 2 -p cbr -e 1000 -c 0 -i 27 -a 0 -x {0.0 2.0 27 ------- null}
- -t 0.458 -s 1 -d 2 -p cbr -e 1000 -c 0 -i 22 -a 0 -x {0.0 2.0 22 ------- null}
h -t 0.458 -s 1 -d 2 -p cbr -e 1000 -c 0 -i 22 -a 0 -x {0.0 2.0 -1 ------- null}
+ -t 0.464 -s 0 -d 1 -p cbr -e 1000 -c 0 -i 29 -a 0 -x {0.0 2.0 29 ------- null}
- -t 0.464 -s 0 -d 1 -p cbr -e 1000 -c 0 -i 29 -a 0 -x {0.0 2.0 29 ------- null}
h -t 0.464 -s 0 -d 1 -p cbr -e 1000 -c 0 -i 29 -a 0 -x {0.0 2.0 -1 ------- null}
r -t 0.466 -s 0 -d 1 -p cbr -e 1000 -c 0 -i 28 -a 0 -x {0.0 2.0 28 ------- null}
+ -t 0.466 -s 1 -d 2 -p cbr -e 1000 -c 0 -i 28 -a 0 -x {0.0 2.0 28 ------- null}
r -t 0.468 -s 1 -d 2 -p cbr -e 1000 -c 0 -i 21 -a 0 -x {0.0 2.0 21 ------- null}
- -t 0.478 -s 1 -d 2 -p cbr -e 1000 -c 0 -i 23 -a 0 -x {0.0 2.0 23 ------- null}
h -t 0.478 -s 1 -d 2 -p cbr -e 1000 -c 0 -i 23 -a 0 -x {0.0 2.0 -1 ------- null}
+ -t 0.48 -s 0 -d 1 -p cbr -e 1000 -c 0 -i 30 -a 0 -x {0.0 2.0 30 ------- null}
- -t 0.48 -s 0 -d 1 -p cbr -e 1000 -c 0 -i 30 -a 0 -x {0.0 2.0 30 ------- null}
h -t 0.48 -s 0 -d 1 -p cbr -e 1000 -c 0 -i 30 -a 0 -x {0.0 2.0 -1 ------- null}
r -t 0.482 -s 0 -d 1 -p cbr -e 1000 -c 0 -i 29 -a 0 -x {0.0 2.0 29 ------- null}
+ -t 0.482 -s 1 -d 2 -p cbr -e 1000 -c 0 -i 29 -a 0 -x {0.0 2.0 29 ------- null}
r -t 0.488 -s 1 -d 2 -p cbr -e 1000 -c 0 -i 22 -a 0 -x {0.0 2.0 22 ------- null}
+ -t 0.496 -s 0 -d 1 -p cbr -e 1000 -c 0 -i 31 -a 0 -x {0.0 2.0 31 ------- null}
- -t 0.496 -s 0 -d 1 -p cbr -e 1000 -c 0 -i 31 -a 0 -x {0.0 2.0 31 ------- null}
h -t 0.496 -s 0 -d 1 -p cbr -e 1000 -c 0 -i 31 -a 0 -x {0.0 2.0 -1 ------- null}
- -t 0.498 -s 1 -d 2 -p cbr -e 1000 -c 0 -i 24 -a 0 -x {0.0 2.0 24 ------- null}
h -t 0.498 -s 1 -d 2 -p cbr -e 1000 -c 0 -i 24 -a 0 -x {0.0 2.0 -1 ------- null}
r -t 0.498 -s 0 -d 1 -p cbr -e 1000 -c 0 -i 30 -a 0 -x {0.0 2.0 30 ------- null}
+ -t 0.498 -s 1 -d 2 -p cbr -e 1000 -c 0 -i 30 -a 0 -x {0.0 2.0 30 ------- null}
r -t 0.508 -s 1 -d 2 -p cbr -e 1000 -c 0 -i 23 -a 0 -x {0.0 2.0 23 ------- null}
+ -t 0.512 -s 0 -d 1 -p cbr -e 1000 -c 0 -i 32 -a 0 -x {0.0 2.0 32 ------- null}
- -t 0.512 -s 0 -d 1 -p cbr -e 1000 -c 0 -i 32 -a 0 -x {0.0 2.0 32 ------- null}
h -t 0.512 -s 0 -d 1 -p cbr -e 1000 -c 0 -i 32 -a 0 -x {0.0 2.0 -1 ------- null}
r -t 0.514 -s 0 -d 1 -p cbr -e 1000 -c 0 -i 31 -a 0 -x {0.0 2.0 31 ------- null}
+ -t 0.514 -s 1 -d 2 -p cbr -e 1000 -c 0 -i 31 -a 0 -x {0.0 2.0 31 ------- null}
- -t 0.518 -s 1 -d 2 -p cbr -e 1000 -c 0 -i 25 -a 0 -x {0.0 2.0 25 ------- null}
h -t 0.518 -s 1 -d 2 -p cbr -e 1000 -c 0 -i 25 -a 0 -x {0.0 2.0 -1 ------- null}
r -t 0.528 -s 1 -d 2 -p cbr -e 1000 -c 0 -i 24 -a 0 -x {0.0 2.0 24 ------- null}
+ -t 0.528 -s 0 -d 1 -p cbr -e 1000 -c 0 -i 33 -a 0 -x {0.0 2.0 33 ------- null}
- -t 0.528 -s 0 -d 1 -p cbr -e 1000 -c 0 -i 33 -a 0 -x {0.0 2.0 33 ------- null}
h -t 0.528 -s 0 -d 1 -p cbr -e 1000 -c 0 -i 33 -a 0 -x {0.0 2.0 -1 ------- null}
r -t 0.53 -s 0 -d 1 -p cbr -e 1000 -c 0 -i 32 -a 0 -x {0.0 2.0 32 ------- null}
+ -t 0.53 -s 1 -d 2 -p cbr -e 1000 -c 0 -i 32 -a 0 -x {0.0 2.0 32 ------- null}
- -t 0.538 -s 1 -d 2 -p cbr -e 1000 -c 0 -i 26 -a 0 -x {0.0 2.0 26 ------- null}
h -t 0.538 -s 1 -d 2 -p cbr -e 1000 -c 0 -i 26 -a 0 -x {0.0 2.0 -1 ------- null}
+ -t 0.544 -s 0 -d 1 -p cbr -e 1000 -c 0 -i 34 -a 0 -x {0.0 2.0 34 ------- null}
- -t 0.544 -s 0 -d 1 -p cbr -e 1000 -c 0 -i 34 -a 0 -x {0.0 2.0 34 ------- null}
h -t 0.544 -s 0 -d 1 -p cbr -e 1000 -c 0 -i 34 -a 0 -x {0.0 2.0 -1 ------- null}
r -t 0.546 -s 0 -d 1 -p cbr -e 1000 -c 0 -i 33 -a 0 -x {0.0 2.0 33 ------- null}
+ -t 0.546 -s 1 -d 2 -p cbr -e 1000 -c 0 -i 33 -a 0 -x {0.0 2.0 33 ------- null}
r -t 0.548 -s 1 -d 2 -p cbr -e 1000 -c 0 -i 25 -a 0 -x {0.0 2.0 25 ------- null}
- -t 0.558 -s 1 -d 2 -p cbr -e 1000 -c 0 -i 27 -a 0 -x {0.0 2.0 27 ------- null}
h -t 0.558 -s 1 -d 2 -p cbr -e 1000 -c 0 -i 27 -a 0 -x {0.0 2.0 -1 ------- null}
+ -t 0.56 -s 0 -d 1 -p cbr -e 1000 -c 0 -i 35 -a 0 -x {0.0 2.0 35 ------- null}
- -t 0.56 -s 0 -d 1 -p cbr -e 1000 -c 0 -i 35 -a 0 -x {0.0 2.0 35 ------- null}
h -t 0.56 -s 0 -d 1 -p cbr -e 1000 -c 0 -i 35 -a 0 -x {0.0 2.0 -1 ------- null}
r -t 0.562 -s 0 -d 1 -p cbr -e 1000 -c 0 -i 34 -a 0 -x {0.0 2.0 34 ------- null}
+ -t 0.562 -s 1 -d 2 -p cbr -e 1000 -c 0 -i 34 -a 0 -x {0.0 2.0 34 ------- null}
r -t 0.568 -s 1 -d 2 -p cbr -e 1000 -c 0 -i 26 -a 0 -x {0.0 2.0 26 ------- null}
+ -t 0.576 -s 0 -d 1 -p cbr -e 1000 -c 0 -i 36 -a 0 -x {0.0 2.0 36 ------- null}
- -t 0.576 -s 0 -d 1 -p cbr -e 1000 -c 0 -i 36 -a 0 -x {0.0 2.0 36 ------- null}
h -t 0.576 -s 0 -d 1 -p cbr -e 1000 -c 0 -i 36 -a 0 -x {0.0 2.0 -1 ------- null}
- -t 0.578 -s 1 -d 2 -p cbr -e 1000 -c 0 -i 28 -a 0 -x {0.0 2.0 28 ------- null}
h -t 0.578 -s 1 -d 2 -p cbr -e 1000 -c 0 -i 28 -a 0 -x {0.0 2.0 -1 ------- null}
r -t 0.578 -s 0 -d 1 -p cbr -e 1000 -c 0 -i 35 -a 0 -x {0.0 2.0 35 ------- null}
+ -t 0.578 -s 1 -d 2 -p cbr -e 1000 -c 0 -i 35 -a 0 -x {0.0 2.0 35 ------- null}
r -t 0.588 -s 1 -d 2 -p cbr -e 1000 -c 0 -i 27 -a 0 -x {0.0 2.0 27 ------- null}
+ -t 0.592 -s 0 -d 1 -p cbr -e 1000 -c 0 -i 37 -a 0 -x {0.0 2.0 37 ------- null}
- -t 0.592 -s 0 -d 1 -p cbr -e 1000 -c 0 -i 37 -a 0 -x {0.0 2.0 37 ------- null}
h -t 0.592 -s 0 -d 1 -p cbr -e 1000 -c 0 -i 37 -a 0 -x {0.0 2.0 -1 ------- null}
r -t 0.594 -s 0 -d 1 -p cbr -e 1000 -c 0 -i 36 -a 0 -x {0.0 2.0 36 ------- null}
+ -t 0.594 -s 1 -d 2 -p cbr -e 1000 -c 0 -i 36 -a 0 -x {0.0 2.0 36 ------- null}
- -t 0.598 -s 1 -d 2 -p cbr -e 1000 -c 0 -i 29 -a 0 -x {0.0 2.0 29 ------- null}
h -t 0.598 -s 1 -d 2 -p cbr -e 1000 -c 0 -i 29 -a 0 -x {0.0 2.0 -1 ------- null}
r -t 0.608 -s 1 -d 2 -p cbr -e 1000 -c 0 -i 28 -a 0 -x {0.0 2.0 28 ------- null}
+ -t 0.608 -s 0 -d 1 -p cbr -e 1000 -c 0 -i 38 -a 0 -x {0.0 2.0 38 ------- null}
- -t 0.608 -s 0 -d 1 -p cbr -e 1000 -c 0 -i 38 -a 0 -x {0.0 2.0 38 ------- null}
h -t 0.608 -s 0 -d 1 -p cbr -e 1000 -c 0 -i 38 -a 0 -x {0.0 2.0 -1 ------- null}
r -t 0.61 -s 0 -d 1 -p cbr -e 1000 -c 0 -i 37 -a 0 -x {0.0 2.0 37 ------- null}
+ -t 0.61 -s 1 -d 2 -p cbr -e 1000 -c 0 -i 37 -a 0 -x {0.0 2.0 37 ------- null}
- -t 0.618 -s 1 -d 2 -p cbr -e 1000 -c 0 -i 30 -a 0 -x {0.0 2.0 30 ------- null}
h -t 0.618 -s 1 -d 2 -p cbr -e 1000 -c 0 -i 30 -a 0 -x {0.0 2.0 -1 ------- null}
+ -t 0.624 -s 0 -d 1 -p cbr -e 1000 -c 0 -i 39 -a 0 -x {0.0 2.0 39 ------- null}
- -t 0.624 -s 0 -d 1 -p cbr -e 1000 -c 0 -i 39 -a 0 -x {0.0 2.0 39 ------- null}
h -t 0.624 -s 0 -d 1 -p cbr -e 1000 -c 0 -i 39 -a 0 -x {0.0 2.0 -1 ------- null}
r -t 0.626 -s 0 -d 1 -p cbr -e 1000 -c 0 -i 38 -a 0 -x {0.0 2.0 38 ------- null}
+ -t 0.626 -s 1 -d 2 -p cbr -e 1000 -c 0 -i 38 -a 0 -x {0.0 2.0 38 ------- null}
r -t 0.628 -s 1 -d 2 -p cbr -e 1000 -c 0 -i 29 -a 0 -x {0.0 2.0 29 ------- null}
- -t 0.638 -s 1 -d 2 -p cbr -e 1000 -c 0 -i 31 -a 0 -x {0.0 2.0 31 ------- null}
h -t 0.638 -s 1 -d 2 -p cbr -e 1000 -c 0 -i 31 -a 0 -x {0.0 2.0 -1 ------- null}
+ -t 0.64 -s 0 -d 1 -p cbr -e 1000 -c 0 -i 40 -a 0 -x {0.0 2.0 40 ------- null}
- -t 0.64 -s 0 -d 1 -p cbr -e 1000 -c 0 -i 40 -a 0 -x {0.0 2.0 40 ------- null}
h -t 0.64 -s 0 -d 1 -p cbr -e 1000 -c 0 -i 40 -a 0 -x {0.0 2.0 -1 ------- null}
r -t 0.642 -s 0 -d 1 -p cbr -e 1000 -c 0 -i 39 -a 0 -x {0.0 2.0 39 ------- null}
+ -t 0.642 -s 1 -d 2 -p cbr -e 1000 -c 0 -i 39 -a 0 -x {0.0 2.0 39 ------- null}
r -t 0.648 -s 1 -d 2 -p cbr -e 1000 -c 0 -i 30 -a 0 -x {0.0 2.0 30 ------- null}
+ -t 0.656 -s 0 -d 1 -p cbr -e 1000 -c 0 -i 41 -a 0 -x {0.0 2.0 41 ------- null}
- -t 0.656 -s 0 -d 1 -p cbr -e 1000 -c 0 -i 41 -a 0 -x {0.0 2.0 41 ------- null}
h -t 0.656 -s 0 -d 1 -p cbr -e 1000 -c 0 -i 41 -a 0 -x {0.0 2.0 -1 ------- null}
- -t 0.658 -s 1 -d 2 -p cbr -e 1000 -c 0 -i 32 -a 0 -x {0.0 2.0 32 ------- null}
h -t 0.658 -s 1 -d 2 -p cbr -e 1000 -c 0 -i 32 -a 0 -x {0.0 2.0 -1 ------- null}
r -t 0.658 -s 0 -d 1 -p cbr -e 1000 -c 0 -i 40 -a 0 -x {0.0 2.0 40 ------- null}
+ -t 0.658 -s 1 -d 2 -p cbr -e 1000 -c 0 -i 40 -a 0 -x {0.0 2.0 40 ------- null}
r -t 0.668 -s 1 -d 2 -p cbr -e 1000 -c 0 -i 31 -a 0 -x {0.0 2.0 31 ------- null}
+ -t 0.672 -s 0 -d 1 -p cbr -e 1000 -c 0 -i 42 -a 0 -x {0.0 2.0 42 ------- null}
- -t 0.672 -s 0 -d 1 -p cbr -e 1000 -c 0 -i 42 -a 0 -x {0.0 2.0 42 ------- null}
h -t 0.672 -s 0 -d 1 -p cbr -e 1000 -c 0 -i 42 -a 0 -x {0.0 2.0 -1 ------- null}
r -t 0.674 -s 0 -d 1 -p cbr -e 1000 -c 0 -i 41 -a 0 -x {0.0 2.0 41 ------- null}
+ -t 0.674 -s 1 -d 2 -p cbr -e 1000 -c 0 -i 41 -a 0 -x {0.0 2.0 41 ------- null}
- -t 0.678 -s 1 -d 2 -p cbr -e 1000 -c 0 -i 33 -a 0 -x {0.0 2.0 33 ------- null}
h -t 0.678 -s 1 -d 2 -p cbr -e 1000 -c 0 -i 33 -a 0 -x {0.0 2.0 -1 ------- null}
r -t 0.688 -s 1 -d 2 -p cbr -e 1000 -c 0 -i 32 -a 0 -x {0.0 2.0 32 ------- null}
+ -t 0.688000000000001 -s 0 -d 1 -p cbr -e 1000 -c 0 -i 43 -a 0 -x {0.0 2.0 43 ------- null}
- -t 0.688000000000001 -s 0 -d 1 -p cbr -e 1000 -c 0 -i 43 -a 0 -x {0.0 2.0 43 ------- null}
h -t 0.688000000000001 -s 0 -d 1 -p cbr -e 1000 -c 0 -i 43 -a 0 -x {0.0 2.0 -1 ------- null}
r -t 0.690000000000001 -s 0 -d 1 -p cbr -e 1000 -c 0 -i 42 -a 0 -x {0.0 2.0 42 ------- null}
+ -t 0.690000000000001 -s 1 -d 2 -p cbr -e 1000 -c 0 -i 42 -a 0 -x {0.0 2.0 42 ------- null}
- -t 0.698 -s 1 -d 2 -p cbr -e 1000 -c 0 -i 34 -a 0 -x {0.0 2.0 34 ------- null}
h -t 0.698 -s 1 -d 2 -p cbr -e 1000 -c 0 -i 34 -a 0 -x {0.0 2.0 -1 ------- null}
+ -t 0.704000000000001 -s 0 -d 1 -p cbr -e 1000 -c 0 -i 44 -a 0 -x {0.0 2.0 44 ------- null}
- -t 0.704000000000001 -s 0 -d 1 -p cbr -e 1000 -c 0 -i 44 -a 0 -x {0.0 2.0 44 ------- null}
h -t 0.704000000000001 -s 0 -d 1 -p cbr -e 1000 -c 0 -i 44 -a 0 -x {0.0 2.0 -1 ------- null}
r -t 0.706000000000001 -s 0 -d 1 -p cbr -e 1000 -c 0 -i 43 -a 0 -x {0.0 2.0 43 ------- null}
+ -t 0.706000000000001 -s 1 -d 2 -p cbr -e 1000 -c 0 -i 43 -a 0 -x {0.0 2.0 43 ------- null}
r -t 0.708 -s 1 -d 2 -p cbr -e 1000 -c 0 -i 33 -a 0 -x {0.0 2.0 33 ------- null}
- -t 0.718 -s 1 -d 2 -p cbr -e 1000 -c 0 -i 35 -a 0 -x {0.0 2.0 35 ------- null}
h -t 0.718 -s 1 -d 2 -p cbr -e 1000 -c 0 -i 35 -a 0 -x {0.0 2.0 -1 ------- null}
+ -t 0.720000000000001 -s 0 -d 1 -p cbr -e 1000 -c 0 -i 45 -a 0 -x {0.0 2.0 45 ------- null}
- -t 0.720000000000001 -s 0 -d 1 -p cbr -e 1000 -c 0 -i 45 -a 0 -x {0.0 2.0 45 ------- null}
h -t 0.720000000000001 -s 0 -d 1 -p cbr -e 1000 -c 0 -i 45 -a 0 -x {0.0 2.0 -1 ------- null}
r -t 0.722000000000001 -s 0 -d 1 -p cbr -e 1000 -c 0 -i 44 -a 0 -x {0.0 2.0 44 ------- null}
+ -t 0.722000000000001 -s 1 -d 2 -p cbr -e 1000 -c 0 -i 44 -a 0 -x {0.0 2.0 44 ------- null}
r -t 0.728 -s 1 -d 2 -p cbr -e 1000 -c 0 -i 34 -a 0 -x {0.0 2.0 34 ------- null}
+ -t 0.736000000000001 -s 0 -d 1 -p cbr -e 1000 -c 0 -i 46 -a 0 -x {0.0 2.0 46 ------- null}
- -t 0.736000000000001 -s 0 -d 1 -p cbr -e 1000 -c 0 -i 46 -a 0 -x {0.0 2.0 46 ------- null}
h -t 0.736000000000001 -s 0 -d 1 -p cbr -e 1000 -c 0 -i 46 -a 0 -x {0.0 2.0 -1 ------- null}
- -t 0.738 -s 1 -d 2 -p cbr -e 1000 -c 0 -i 36 -a 0 -x {0.0 2.0 36 ------- null}
h -t 0.738 -s 1 -d 2 -p cbr -e 1000 -c 0 -i 36 -a 0 -x {0.0 2.0 -1 ------- null}
r -t 0.738000000000001 -s 0 -d 1 -p cbr -e 1000 -c 0 -i 45 -a 0 -x {0.0 2.0 45 ------- null}
+ -t 0.738000000000001 -s 1 -d 2 -p cbr -e 1000 -c 0 -i 45 -a 0 -x {0.0 2.0 45 ------- null}
r -t 0.748 -s 1 -d 2 -p cbr -e 1000 -c 0 -i 35 -a 0 -x {0.0 2.0 35 ------- null}
+ -t 0.752000000000001 -s 0 -d 1 -p cbr -e 1000 -c 0 -i 47 -a 0 -x {0.0 2.0 47 ------- null}
- -t 0.752000000000001 -s 0 -d 1 -p cbr -e 1000 -c 0 -i 47 -a 0 -x {0.0 2.0 47 ------- null}
h -t 0.752000000000001 -s 0 -d 1 -p cbr -e 1000 -c 0 -i 47 -a 0 -x {0.0 2.0 -1 ------- null}
r -t 0.754000000000001 -s 0 -d 1 -p cbr -e 1000 -c 0 -i 46 -a 0 -x {0.0 2.0 46 ------- null}
+ -t 0.754000000000001 -s 1 -d 2 -p cbr -e 1000 -c 0 -i 46 -a 0 -x {0.0 2.0 46 ------- null}
d -t 0.754000000000001 -s 1 -d 2 -p cbr -e 1000 -c 0 -i 46 -a 0 -x {0.0 2.0 46 ------- null}
- -t 0.758 -s 1 -d 2 -p cbr -e 1000 -c 0 -i 37 -a 0 -x {0.0 2.0 37 ------- null}
h -t 0.758 -s 1 -d 2 -p cbr -e 1000 -c 0 -i 37 -a 0 -x {0.0 2.0 -1 ------- null}
r -t 0.768 -s 1 -d 2 -p cbr -e 1000 -c 0 -i 36 -a 0 -x {0.0 2.0 36 ------- null}
+ -t 0.768000000000001 -s 0 -d 1 -p cbr -e 1000 -c 0 -i 48 -a 0 -x {0.0 2.0 48 ------- null}
- -t 0.768000000000001 -s 0 -d 1 -p cbr -e 1000 -c 0 -i 48 -a 0 -x {0.0 2.0 48 ------- null}
h -t 0.768000000000001 -s 0 -d 1 -p cbr -e 1000 -c 0 -i 48 -a 0 -x {0.0 2.0 -1 ------- null}
r -t 0.770000000000001 -s 0 -d 1 -p cbr -e 1000 -c 0 -i 47 -a 0 -x {0.0 2.0 47 ------- null}
+ -t 0.770000000000001 -s 1 -d 2 -p cbr -e 1000 -c 0 -i 47 -a 0 -x {0.0 2.0 47 ------- null}
- -t 0.778 -s 1 -d 2 -p cbr -e 1000 -c 0 -i 38 -a 0 -x {0.0 2.0 38 ------- null}
h -t 0.778 -s 1 -d 2 -p cbr -e 1000 -c 0 -i 38 -a 0 -x {0.0 2.0 -1 ------- null}
+ -t 0.784000000000001 -s 0 -d 1 -p cbr -e 1000 -c 0 -i 49 -a 0 -x {0.0 2.0 49 ------- null}
- -t 0.784000000000001 -s 0 -d 1 -p cbr -e 1000 -c 0 -i 49 -a 0 -x {0.0 2.0 49 ------- null}
h -t 0.784000000000001 -s 0 -d 1 -p cbr -e 1000 -c 0 -i 49 -a 0 -x {0.0 2.0 -1 ------- null}
r -t 0.786000000000001 -s 0 -d 1 -p cbr -e 1000 -c 0 -i 48 -a 0 -x {0.0 2.0 48 ------- null}