+ 1 1 2 cbr 1000 ------- 2 1.0 3.1 0 0
- 1 1 2 cbr 1000 ------- 2 1.0 3.1 0 0
+ 1 0 2 tcp 40 ------- 1 0.0 3.0 0 1
- 1 0 2 tcp 40 ------- 1 0.0 3.0 0 1
+ 1.008 1 2 cbr 1000 ------- 2 1.0 3.1 1 2
- 1.008 1 2 cbr 1000 ------- 2 1.0 3.1 1 2
r 1.01016 0 2 tcp 40 ------- 1 0.0 3.0 0 1
+ 1.01016 2 3 tcp 40 ------- 1 0.0 3.0 0 1
- 1.01016 2 3 tcp 40 ------- 1 0.0 3.0 0 1
r 1.014 1 2 cbr 1000 ------- 2 1.0 3.1 0 0
+ 1.014 2 3 cbr 1000 ------- 2 1.0 3.1 0 0
- 1.014731 2 3 cbr 1000 ------- 2 1.0 3.1 0 0
+ 1.016 1 2 cbr 1000 ------- 2 1.0 3.1 2 3
- 1.016 1 2 cbr 1000 ------- 2 1.0 3.1 2 3
r 1.022 1 2 cbr 1000 ------- 2 1.0 3.1 1 2
+ 1.022 2 3 cbr 1000 ------- 2 1.0 3.1 1 2
+ 1.024 1 2 cbr 1000 ------- 2 1.0 3.1 3 4
- 1.024 1 2 cbr 1000 ------- 2 1.0 3.1 3 4
r 1.03 1 2 cbr 1000 ------- 2 1.0 3.1 2 3
+ 1.03 2 3 cbr 1000 ------- 2 1.0 3.1 2 3
+ 1.032 1 2 cbr 1000 ------- 2 1.0 3.1 4 5
- 1.032 1 2 cbr 1000 ------- 2 1.0 3.1 4 5
r 1.034731 2 3 tcp 40 ------- 1 0.0 3.0 0 1
+ 1.034731 3 2 ack 40 ------- 1 3.0 0.0 0 6
- 1.034731 3 2 ack 40 ------- 1 3.0 0.0 0 6
r 1.038 1 2 cbr 1000 ------- 2 1.0 3.1 3 4
+ 1.038 2 3 cbr 1000 ------- 2 1.0 3.1 3 4
d 1.038 2 3 cbr 1000 ------- 2 1.0 3.1 3 4
+ 1.04 1 2 cbr 1000 ------- 2 1.0 3.1 5 7
- 1.04 1 2 cbr 1000 ------- 2 1.0 3.1 5 7
r 1.046 1 2 cbr 1000 ------- 2 1.0 3.1 4 5
+ 1.046 2 3 cbr 1000 ------- 2 1.0 3.1 4 5
d 1.046 2 3 cbr 1000 ------- 2 1.0 3.1 4 5
+ 1.048 1 2 cbr 1000 ------- 2 1.0 3.1 6 8
- 1.048 1 2 cbr 1000 ------- 2 1.0 3.1 6 8
r 1.054 1 2 cbr 1000 ------- 2 1.0 3.1 5 7
+ 1.054 2 3 cbr 1000 ------- 2 1.0 3.1 5 7
d 1.054 2 3 cbr 1000 ------- 2 1.0 3.1 5 7
+ 1.056 1 2 cbr 1000 ------- 2 1.0 3.1 7 9
- 1.056 1 2 cbr 1000 ------- 2 1.0 3.1 7 9
r 1.059303 3 2 ack 40 ------- 1 3.0 0.0 0 6
+ 1.059303 2 0 ack 40 ------- 1 3.0 0.0 0 6
- 1.059303 2 0 ack 40 ------- 1 3.0 0.0 0 6
r 1.062 1 2 cbr 1000 ------- 2 1.0 3.1 6 8
+ 1.062 2 3 cbr 1000 ------- 2 1.0 3.1 6 8
d 1.062 2 3 cbr 1000 ------- 2 1.0 3.1 6 8
+ 1.064 1 2 cbr 1000 ------- 2 1.0 3.1 8 10
- 1.064 1 2 cbr 1000 ------- 2 1.0 3.1 8 10
r 1.069463 2 0 ack 40 ------- 1 3.0 0.0 0 6
+ 1.069463 0 2 tcp 1040 ------- 1 0.0 3.0 1 11
- 1.069463 0 2 tcp 1040 ------- 1 0.0 3.0 1 11
+ 1.069463 0 2 tcp 1040 ------- 1 0.0 3.0 2 12
r 1.07 1 2 cbr 1000 ------- 2 1.0 3.1 7 9
+ 1.07 2 3 cbr 1000 ------- 2 1.0 3.1 7 9
d 1.07 2 3 cbr 1000 ------- 2 1.0 3.1 7 9
+ 1.072 1 2 cbr 1000 ------- 2 1.0 3.1 9 13
- 1.072 1 2 cbr 1000 ------- 2 1.0 3.1 9 13
- 1.073623 0 2 tcp 1040 ------- 1 0.0 3.0 2 12
r 1.078 1 2 cbr 1000 ------- 2 1.0 3.1 8 10
+ 1.078 2 3 cbr 1000 ------- 2 1.0 3.1 8 10
d 1.078 2 3 cbr 1000 ------- 2 1.0 3.1 8 10
+ 1.08 1 2 cbr 1000 ------- 2 1.0 3.1 10 14
- 1.08 1 2 cbr 1000 ------- 2 1.0 3.1 10 14
r 1.083623 0 2 tcp 1040 ------- 1 0.0 3.0 1 11
+ 1.083623 2 3 tcp 1040 ------- 1 0.0 3.0 1 11
d 1.083623 2 3 tcp 1040 ------- 1 0.0 3.0 1 11
r 1.086 1 2 cbr 1000 ------- 2 1.0 3.1 9 13
+ 1.086 2 3 cbr 1000 ------- 2 1.0 3.1 9 13
d 1.086 2 3 cbr 1000 ------- 2 1.0 3.1 9 13
r 1.087783 0 2 tcp 1040 ------- 1 0.0 3.0 2 12
+ 1.087783 2 3 tcp 1040 ------- 1 0.0 3.0 2 12
d 1.087783 2 3 tcp 1040 ------- 1 0.0 3.0 2 12
+ 1.088 1 2 cbr 1000 ------- 2 1.0 3.1 11 15
- 1.088 1 2 cbr 1000 ------- 2 1.0 3.1 11 15
r 1.094 1 2 cbr 1000 ------- 2 1.0 3.1 10 14
+ 1.094 2 3 cbr 1000 ------- 2 1.0 3.1 10 14
d 1.094 2 3 cbr 1000 ------- 2 1.0 3.1 10 14
+ 1.096 1 2 cbr 1000 ------- 2 1.0 3.1 12 16
- 1.096 1 2 cbr 1000 ------- 2 1.0 3.1 12 16
r 1.102 1 2 cbr 1000 ------- 2 1.0 3.1 11 15
+ 1.102 2 3 cbr 1000 ------- 2 1.0 3.1 11 15
d 1.102 2 3 cbr 1000 ------- 2 1.0 3.1 11 15
+ 1.104 1 2 cbr 1000 ------- 2 1.0 3.1 13 17
- 1.104 1 2 cbr 1000 ------- 2 1.0 3.1 13 17
r 1.11 1 2 cbr 1000 ------- 2 1.0 3.1 12 16
+ 1.11 2 3 cbr 1000 ------- 2 1.0 3.1 12 16
d 1.11 2 3 cbr 1000 ------- 2 1.0 3.1 12 16
+ 1.112 1 2 cbr 1000 ------- 2 1.0 3.1 14 18
- 1.112 1 2 cbr 1000 ------- 2 1.0 3.1 14 18
r 1.118 1 2 cbr 1000 ------- 2 1.0 3.1 13 17
+ 1.118 2 3 cbr 1000 ------- 2 1.0 3.1 13 17
d 1.118 2 3 cbr 1000 ------- 2 1.0 3.1 13 17
+ 1.12 1 2 cbr 1000 ------- 2 1.0 3.1 15 19
- 1.12 1 2 cbr 1000 ------- 2 1.0 3.1 15 19
r 1.126 1 2 cbr 1000 ------- 2 1.0 3.1 14 18
+ 1.126 2 3 cbr 1000 ------- 2 1.0 3.1 14 18
d 1.126 2 3 cbr 1000 ------- 2 1.0 3.1 14 18
+ 1.128 1 2 cbr 1000 ------- 2 1.0 3.1 16 20
- 1.128 1 2 cbr 1000 ------- 2 1.0 3.1 16 20
- 1.129017 2 3 cbr 1000 ------- 2 1.0 3.1 1 2
r 1.134 1 2 cbr 1000 ------- 2 1.0 3.1 15 19
+ 1.134 2 3 cbr 1000 ------- 2 1.0 3.1 15 19
+ 1.136 1 2 cbr 1000 ------- 2 1.0 3.1 17 21
- 1.136 1 2 cbr 1000 ------- 2 1.0 3.1 17 21
r 1.142 1 2 cbr 1000 ------- 2 1.0 3.1 16 20
+ 1.142 2 3 cbr 1000 ------- 2 1.0 3.1 16 20
d 1.142 2 3 cbr 1000 ------- 2 1.0 3.1 16 20
+ 1.144 1 2 cbr 1000 ------- 2 1.0 3.1 18 22
- 1.144 1 2 cbr 1000 ------- 2 1.0 3.1 18 22
r 1.149017 2 3 cbr 1000 ------- 2 1.0 3.1 0 0
r 1.15 1 2 cbr 1000 ------- 2 1.0 3.1 17 21
+ 1.15 2 3 cbr 1000 ------- 2 1.0 3.1 17 21
d 1.15 2 3 cbr 1000 ------- 2 1.0 3.1 17 21
+ 1.152 1 2 cbr 1000 ------- 2 1.0 3.1 19 23
- 1.152 1 2 cbr 1000 ------- 2 1.0 3.1 19 23
r 1.158 1 2 cbr 1000 ------- 2 1.0 3.1 18 22
+ 1.158 2 3 cbr 1000 ------- 2 1.0 3.1 18 22
d 1.158 2 3 cbr 1000 ------- 2 1.0 3.1 18 22
+ 1.16 1 2 cbr 1000 ------- 2 1.0 3.1 20 24
- 1.16 1 2 cbr 1000 ------- 2 1.0 3.1 20 24
r 1.166 1 2 cbr 1000 ------- 2 1.0 3.1 19 23
+ 1.166 2 3 cbr 1000 ------- 2 1.0 3.1 19 23
d 1.166 2 3 cbr 1000 ------- 2 1.0 3.1 19 23
+ 1.168 1 2 cbr 1000 ------- 2 1.0 3.1 21 25
- 1.168 1 2 cbr 1000 ------- 2 1.0 3.1 21 25
r 1.174 1 2 cbr 1000 ------- 2 1.0 3.1 20 24
+ 1.174 2 3 cbr 1000 ------- 2 1.0 3.1 20 24
d 1.174 2 3 cbr 1000 ------- 2 1.0 3.1 20 24
+ 1.176 1 2 cbr 1000 ------- 2 1.0 3.1 22 26
- 1.176 1 2 cbr 1000 ------- 2 1.0 3.1 22 26
r 1.182 1 2 cbr 1000 ------- 2 1.0 3.1 21 25
+ 1.182 2 3 cbr 1000 ------- 2 1.0 3.1 21 25
d 1.182 2 3 cbr 1000 ------- 2 1.0 3.1 21 25
+ 1.184 1 2 cbr 1000 ------- 2 1.0 3.1 23 27
- 1.184 1 2 cbr 1000 ------- 2 1.0 3.1 23 27
r 1.19 1 2 cbr 1000 ------- 2 1.0 3.1 22 26
+ 1.19 2 3 cbr 1000 ------- 2 1.0 3.1 22 26
d 1.19 2 3 cbr 1000 ------- 2 1.0 3.1 22 26
+ 1.192 1 2 cbr 1000 ------- 2 1.0 3.1 24 28
- 1.192 1 2 cbr 1000 ------- 2 1.0 3.1 24 28
r 1.198 1 2 cbr 1000 ------- 2 1.0 3.1 23 27
+ 1.198 2 3 cbr 1000 ------- 2 1.0 3.1 23 27
d 1.198 2 3 cbr 1000 ------- 2 1.0 3.1 23 27
+ 1.2 1 2 cbr 1000 ------- 2 1.0 3.1 25 29
- 1.2 1 2 cbr 1000 ------- 2 1.0 3.1 25 29
r 1.206 1 2 cbr 1000 ------- 2 1.0 3.1 24 28
+ 1.206 2 3 cbr 1000 ------- 2 1.0 3.1 24 28
d 1.206 2 3 cbr 1000 ------- 2 1.0 3.1 24 28
+ 1.208 1 2 cbr 1000 ------- 2 1.0 3.1 26 30
- 1.208 1 2 cbr 1000 ------- 2 1.0 3.1 26 30
r 1.214 1 2 cbr 1000 ------- 2 1.0 3.1 25 29
+ 1.214 2 3 cbr 1000 ------- 2 1.0 3.1 25 29
d 1.214 2 3 cbr 1000 ------- 2 1.0 3.1 25 29
+ 1.216 1 2 cbr 1000 ------- 2 1.0 3.1 27 31
- 1.216 1 2 cbr 1000 ------- 2 1.0 3.1 27 31
r 1.222 1 2 cbr 1000 ------- 2 1.0 3.1 26 30
+ 1.222 2 3 cbr 1000 ------- 2 1.0 3.1 26 30
d 1.222 2 3 cbr 1000 ------- 2 1.0 3.1 26 30
+ 1.224 1 2 cbr 1000 ------- 2 1.0 3.1 28 32
- 1.224 1 2 cbr 1000 ------- 2 1.0 3.1 28 32
r 1.23 1 2 cbr 1000 ------- 2 1.0 3.1 27 31
+ 1.23 2 3 cbr 1000 ------- 2 1.0 3.1 27 31
d 1.23 2 3 cbr 1000 ------- 2 1.0 3.1 27 31
+ 1.232 1 2 cbr 1000 ------- 2 1.0 3.1 29 33
- 1.232 1 2 cbr 1000 ------- 2 1.0 3.1 29 33
r 1.238 1 2 cbr 1000 ------- 2 1.0 3.1 28 32
+ 1.238 2 3 cbr 1000 ------- 2 1.0 3.1 28 32
d 1.238 2 3 cbr 1000 ------- 2 1.0 3.1 28 32
+ 1.24 1 2 cbr 1000 ------- 2 1.0 3.1 30 34
- 1.24 1 2 cbr 1000 ------- 2 1.0 3.1 30 34
- 1.243303 2 3 cbr 1000 ------- 2 1.0 3.1 2 3
r 1.246 1 2 cbr 1000 ------- 2 1.0 3.1 29 33
+ 1.246 2 3 cbr 1000 ------- 2 1.0 3.1 29 33
+ 1.248 1 2 cbr 1000 ------- 2 1.0 3.1 31 35
- 1.248 1 2 cbr 1000 ------- 2 1.0 3.1 31 35
r 1.254 1 2 cbr 1000 ------- 2 1.0 3.1 30 34
+ 1.254 2 3 cbr 1000 ------- 2 1.0 3.1 30 34
d 1.254 2 3 cbr 1000 ------- 2 1.0 3.1 30 34
+ 1.256 1 2 cbr 1000 ------- 2 1.0 3.1 32 36
- 1.256 1 2 cbr 1000 ------- 2 1.0 3.1 32 36
r 1.262 1 2 cbr 1000 ------- 2 1.0 3.1 31 35
+ 1.262 2 3 cbr 1000 ------- 2 1.0 3.1 31 35
d 1.262 2 3 cbr 1000 ------- 2 1.0 3.1 31 35
r 1.263303 2 3 cbr 1000 ------- 2 1.0 3.1 1 2
+ 1.264 1 2 cbr 1000 ------- 2 1.0 3.1 33 37
- 1.264 1 2 cbr 1000 ------- 2 1.0 3.1 33 37
r 1.27 1 2 cbr 1000 ------- 2 1.0 3.1 32 36
+ 1.27 2 3 cbr 1000 ------- 2 1.0 3.1 32 36
d 1.27 2 3 cbr 1000 ------- 2 1.0 3.1 32 36
+ 1.272 1 2 cbr 1000 ------- 2 1.0 3.1 34 38
- 1.272 1 2 cbr 1000 ------- 2 1.0 3.1 34 38
r 1.278 1 2 cbr 1000 ------- 2 1.0 3.1 33 37
+ 1.278 2 3 cbr 1000 ------- 2 1.0 3.1 33 37
d 1.278 2 3 cbr 1000 ------- 2 1.0 3.1 33 37
+ 1.279463 0 2 tcp 1040 ---A--- 1 0.0 3.0 1 39
- 1.279463 0 2 tcp 1040 ---A--- 1 0.0 3.0 1 39
+ 1.28 1 2 cbr 1000 ------- 2 1.0 3.1 35 40
- 1.28 1 2 cbr 1000 ------- 2 1.0 3.1 35 40
r 1.286 1 2 cbr 1000 ------- 2 1.0 3.1 34 38
+ 1.286 2 3 cbr 1000 ------- 2 1.0 3.1 34 38
d 1.286 2 3 cbr 1000 ------- 2 1.0 3.1 34 38
+ 1.288 1 2 cbr 1000 ------- 2 1.0 3.1 36 41
- 1.288 1 2 cbr 1000 ------- 2 1.0 3.1 36 41
r 1.293623 0 2 tcp 1040 ---A--- 1 0.0 3.0 1 39
+ 1.293623 2 3 tcp 1040 ---A--- 1 0.0 3.0 1 39
d 1.293623 2 3 tcp 1040 ---A--- 1 0.0 3.0 1 39
r 1.294 1 2 cbr 1000 ------- 2 1.0 3.1 35 40
+ 1.294 2 3 cbr 1000 ------- 2 1.0 3.1 35 40
d 1.294 2 3 cbr 1000 ------- 2 1.0 3.1 35 40
+ 1.296 1 2 cbr 1000 ------- 2 1.0 3.1 37 42
- 1.296 1 2 cbr 1000 ------- 2 1.0 3.1 37 42
r 1.302 1 2 cbr 1000 ------- 2 1.0 3.1 36 41
+ 1.302 2 3 cbr 1000 ------- 2 1.0 3.1 36 41
d 1.302 2 3 cbr 1000 ------- 2 1.0 3.1 36 41
+ 1.304 1 2 cbr 1000 ------- 2 1.0 3.1 38 43
- 1.304 1 2 cbr 1000 ------- 2 1.0 3.1 38 43
r 1.31 1 2 cbr 1000 ------- 2 1.0 3.1 37 42
+ 1.31 2 3 cbr 1000 ------- 2 1.0 3.1 37 42
d 1.31 2 3 cbr 1000 ------- 2 1.0 3.1 37 42
+ 1.312 1 2 cbr 1000 ------- 2 1.0 3.1 39 44
- 1.312 1 2 cbr 1000 ------- 2 1.0 3.1 39 44
r 1.318 1 2 cbr 1000 ------- 2 1.0 3.1 38 43
+ 1.318 2 3 cbr 1000 ------- 2 1.0 3.1 38 43
d 1.318 2 3 cbr 1000 ------- 2 1.0 3.1 38 43
+ 1.32 1 2 cbr 1000 ------- 2 1.0 3.1 40 45
- 1.32 1 2 cbr 1000 ------- 2 1.0 3.1 40 45
r 1.326 1 2 cbr 1000 ------- 2 1.0 3.1 39 44
+ 1.326 2 3 cbr 1000 ------- 2 1.0 3.1 39 44
d 1.326 2 3 cbr 1000 ------- 2 1.0 3.1 39 44
+ 1.328 1 2 cbr 1000 ------- 2 1.0 3.1 41 46
- 1.328 1 2 cbr 1000 ------- 2 1.0 3.1 41 46
r 1.334 1 2 cbr 1000 ------- 2 1.0 3.1 40 45
+ 1.334 2 3 cbr 1000 ------- 2 1.0 3.1 40 45
d 1.334 2 3 cbr 1000 ------- 2 1.0 3.1 40 45
+ 1.336 1 2 cbr 1000 ------- 2 1.0 3.1 42 47
- 1.336 1 2 cbr 1000 ------- 2 1.0 3.1 42 47
r 1.342 1 2 cbr 1000 ------- 2 1.0 3.1 41 46
+ 1.342 2 3 cbr 1000 ------- 2 1.0 3.1 41 46
d 1.342 2 3 cbr 1000 ------- 2 1.0 3.1 41 46
+ 1.344 1 2 cbr 1000 ------- 2 1.0 3.1 43 48
- 1.344 1 2 cbr 1000 ------- 2 1.0 3.1 43 48
r 1.35 1 2 cbr 1000 ------- 2 1.0 3.1 42 47
+ 1.35 2 3 cbr 1000 ------- 2 1.0 3.1 42 47
d 1.35 2 3 cbr 1000 ------- 2 1.0 3.1 42 47
+ 1.352 1 2 cbr 1000 ------- 2 1.0 3.1 44 49
- 1.352 1 2 cbr 1000 ------- 2 1.0 3.1 44 49
- 1.357589 2 3 cbr 1000 ------- 2 1.0 3.1 15 19
r 1.358 1 2 cbr 1000 ------- 2 1.0 3.1 43 48
+ 1.358 2 3 cbr 1000 ------- 2 1.0 3.1 43 48
+ 1.36 1 2 cbr 1000 ------- 2 1.0 3.1 45 50
- 1.36 1 2 cbr 1000 ------- 2 1.0 3.1 45 50
r 1.366 1 2 cbr 1000 ------- 2 1.0 3.1 44 49
+ 1.366 2 3 cbr 1000 ------- 2 1.0 3.1 44 49
d 1.366 2 3 cbr 1000 ------- 2 1.0 3.1 44 49
+ 1.368 1 2 cbr 1000 ------- 2 1.0 3.1 46 51
- 1.368 1 2 cbr 1000 ------- 2 1.0 3.1 46 51
r 1.374 1 2 cbr 1000 ------- 2 1.0 3.1 45 50
+ 1.374 2 3 cbr 1000 ------- 2 1.0 3.1 45 50
d 1.374 2 3 cbr 1000 ------- 2 1.0 3.1 45 50
+ 1.376 1 2 cbr 1000 ------- 2 1.0 3.1 47 52
- 1.376 1 2 cbr 1000 ------- 2 1.0 3.1 47 52
r 1.377589 2 3 cbr 1000 ------- 2 1.0 3.1 2 3
r 1.382 1 2 cbr 1000 ------- 2 1.0 3.1 46 51
+ 1.382 2 3 cbr 1000 ------- 2 1.0 3.1 46 51
d 1.382 2 3 cbr 1000 ------- 2 1.0 3.1 46 51
+ 1.384 1 2 cbr 1000 ------- 2 1.0 3.1 48 53
- 1.384 1 2 cbr 1000 ------- 2 1.0 3.1 48 53
r 1.39 1 2 cbr 1000 ------- 2 1.0 3.1 47 52
+ 1.39 2 3 cbr 1000 ------- 2 1.0 3.1 47 52
d 1.39 2 3 cbr 1000 ------- 2 1.0 3.1 47 52
+ 1.392 1 2 cbr 1000 ------- 2 1.0 3.1 49 54
- 1.392 1 2 cbr 1000 ------- 2 1.0 3.1 49 54
r 1.398 1 2 cbr 1000 ------- 2 1.0 3.1 48 53
+ 1.398 2 3 cbr 1000 ------- 2 1.0 3.1 48 53
d 1.398 2 3 cbr 1000 ------- 2 1.0 3.1 48 53
+ 1.4 1 2 cbr 1000 ------- 2 1.0 3.1 50 55
- 1.4 1 2 cbr 1000 ------- 2 1.0 3.1 50 55
r 1.406 1 2 cbr 1000 ------- 2 1.0 3.1 49 54
+ 1.406 2 3 cbr 1000 ------- 2 1.0 3.1 49 54
d 1.406 2 3 cbr 1000 ------- 2 1.0 3.1 49 54
+ 1.408 1 2 cbr 1000 ------- 2 1.0 3.1 51 56
- 1.408 1 2 cbr 1000 ------- 2 1.0 3.1 51 56
r 1.414 1 2 cbr 1000 ------- 2 1.0 3.1 50 55
+ 1.414 2 3 cbr 1000 ------- 2 1.0 3.1 50 55
d 1.414 2 3 cbr 1000 ------- 2 1.0 3.1 50 55
+ 1.416 1 2 cbr 1000 ------- 2 1.0 3.1 52 57
- 1.416 1 2 cbr 1000 ------- 2 1.0 3.1 52 57
r 1.422 1 2 cbr 1000 ------- 2 1.0 3.1 51 56
+ 1.422 2 3 cbr 1000 ------- 2 1.0 3.1 51 56
d 1.422 2 3 cbr 1000 ------- 2 1.0 3.1 51 56
+ 1.424 1 2 cbr 1000 ------- 2 1.0 3.1 53 58
- 1.424 1 2 cbr 1000 ------- 2 1.0 3.1 53 58
r 1.43 1 2 cbr 1000 ------- 2 1.0 3.1 52 57
+ 1.43 2 3 cbr 1000 ------- 2 1.0 3.1 52 57
d 1.43 2 3 cbr 1000 ------- 2 1.0 3.1 52 57
+ 1.432 1 2 cbr 1000 ------- 2 1.0 3.1 54 59
- 1.432 1 2 cbr 1000 ------- 2 1.0 3.1 54 59
r 1.438 1 2 cbr 1000 ------- 2 1.0 3.1 53 58
+ 1.438 2 3 cbr 1000 ------- 2 1.0 3.1 53 58
d 1.438 2 3 cbr 1000 ------- 2 1.0 3.1 53 58
+ 1.44 1 2 cbr 1000 ------- 2 1.0 3.1 55 60
- 1.44 1 2 cbr 1000 ------- 2 1.0 3.1 55 60
r 1.446 1 2 cbr 1000 ------- 2 1.0 3.1 54 59
+ 1.446 2 3 cbr 1000 ------- 2 1.0 3.1 54 59
d 1.446 2 3 cbr 1000 ------- 2 1.0 3.1 54 59
+ 1.448 1 2 cbr 1000 ------- 2 1.0 3.1 56 61
- 1.448 1 2 cbr 1000 ------- 2 1.0 3.1 56 61
r 1.454 1 2 cbr 1000 ------- 2 1.0 3.1 55 60
+ 1.454 2 3 cbr 1000 ------- 2 1.0 3.1 55 60
d 1.454 2 3 cbr 1000 ------- 2 1.0 3.1 55 60
+ 1.456 1 2 cbr 1000 ------- 2 1.0 3.1 57 62
- 1.456 1 2 cbr 1000 ------- 2 1.0 3.1 57 62
r 1.462 1 2 cbr 1000 ------- 2 1.0 3.1 56 61
+ 1.462 2 3 cbr 1000 ------- 2 1.0 3.1 56 61
d 1.462 2 3 cbr 1000 ------- 2 1.0 3.1 56 61
+ 1.464 1 2 cbr 1000 ------- 2 1.0 3.1 58 63
- 1.464 1 2 cbr 1000 ------- 2 1.0 3.1 58 63
r 1.47 1 2 cbr 1000 ------- 2 1.0 3.1 57 62
+ 1.47 2 3 cbr 1000 ------- 2 1.0 3.1 57 62
d 1.47 2 3 cbr 1000 ------- 2 1.0 3.1 57 62
- 1.471874 2 3 cbr 1000 ------- 2 1.0 3.1 29 33
+ 1.472 1 2 cbr 1000 ------- 2 1.0 3.1 59 64
- 1.472 1 2 cbr 1000 ------- 2 1.0 3.1 59 64
r 1.478 1 2 cbr 1000 ------- 2 1.0 3.1 58 63
+ 1.478 2 3 cbr 1000 ------- 2 1.0 3.1 58 63
+ 1.48 1 2 cbr 1000 ------- 2 1.0 3.1 60 65
- 1.48 1 2 cbr 1000 ------- 2 1.0 3.1 60 65
r 1.486 1 2 cbr 1000 ------- 2 1.0 3.1 59 64
+ 1.486 2 3 cbr 1000 ------- 2 1.0 3.1 59 64
d 1.486 2 3 cbr 1000 ------- 2 1.0 3.1 59 64
+ 1.488 1 2 cbr 1000 ------- 2 1.0 3.1 61 66
- 1.488 1 2 cbr 1000 ------- 2 1.0 3.1 61 66
r 1.491874 2 3 cbr 1000 ------- 2 1.0 3.1 15 19
r 1.494 1 2 cbr 1000 ------- 2 1.0 3.1 60 65
+ 1.494 2 3 cbr 1000 ------- 2 1.0 3.1 60 65
d 1.494 2 3 cbr 1000 ------- 2 1.0 3.1 60 65
+ 1.496 1 2 cbr 1000 ------- 2 1.0 3.1 62 67
- 1.496 1 2 cbr 1000 ------- 2 1.0 3.1 62 67
r 1.502 1 2 cbr 1000 ------- 2 1.0 3.1 61 66
+ 1.502 2 3 cbr 1000 ------- 2 1.0 3.1 61 66
d 1.502 2 3 cbr 1000 ------- 2 1.0 3.1 61 66
+ 1.504 1 2 cbr 1000 ------- 2 1.0 3.1 63 68
- 1.504 1 2 cbr 1000 ------- 2 1.0 3.1 63 68
r 1.51 1 2 cbr 1000 ------- 2 1.0 3.1 62 67
+ 1.51 2 3 cbr 1000 ------- 2 1.0 3.1 62 67
d 1.51 2 3 cbr 1000 ------- 2 1.0 3.1 62 67
+ 1.512 1 2 cbr 1000 ------- 2 1.0 3.1 64 69
- 1.512 1 2 cbr 1000 ------- 2 1.0 3.1 64 69
r 1.518 1 2 cbr 1000 ------- 2 1.0 3.1 63 68
+ 1.518 2 3 cbr 1000 ------- 2 1.0 3.1 63 68
d 1.518 2 3 cbr 1000 ------- 2 1.0 3.1 63 68
+ 1.52 1 2 cbr 1000 ------- 2 1.0 3.1 65 70
- 1.52 1 2 cbr 1000 ------- 2 1.0 3.1 65 70
r 1.526 1 2 cbr 1000 ------- 2 1.0 3.1 64 69
+ 1.526 2 3 cbr 1000 ------- 2 1.0 3.1 64 69
d 1.526 2 3 cbr 1000 ------- 2 1.0 3.1 64 69
+ 1.528 1 2 cbr 1000 ------- 2 1.0 3.1 66 71
- 1.528 1 2 cbr 1000 ------- 2 1.0 3.1 66 71
r 1.534 1 2 cbr 1000 ------- 2 1.0 3.1 65 70
+ 1.534 2 3 cbr 1000 ------- 2 1.0 3.1 65 70
d 1.534 2 3 cbr 1000 ------- 2 1.0 3.1 65 70
+ 1.536 1 2 cbr 1000 ------- 2 1.0 3.1 67 72
- 1.536 1 2 cbr 1000 ------- 2 1.0 3.1 67 72
r 1.542 1 2 cbr 1000 ------- 2 1.0 3.1 66 71
+ 1.542 2 3 cbr 1000 ------- 2 1.0 3.1 66 71
d 1.542 2 3 cbr 1000 ------- 2 1.0 3.1 66 71
+ 1.544 1 2 cbr 1000 ------- 2 1.0 3.1 68 73
- 1.544 1 2 cbr 1000 ------- 2 1.0 3.1 68 73
r 1.55 1 2 cbr 1000 ------- 2 1.0 3.1 67 72
+ 1.55 2 3 cbr 1000 ------- 2 1.0 3.1 67 72
d 1.55 2 3 cbr 1000 ------- 2 1.0 3.1 67 72
+ 1.552 1 2 cbr 1000 ------- 2 1.0 3.1 69 74
- 1.552 1 2 cbr 1000 ------- 2 1.0 3.1 69 74
r 1.558 1 2 cbr 1000 ------- 2 1.0 3.1 68 73
+ 1.558 2 3 cbr 1000 ------- 2 1.0 3.1 68 73
d 1.558 2 3 cbr 1000 ------- 2 1.0 3.1 68 73
+ 1.56 1 2 cbr 1000 ------- 2 1.0 3.1 70 75
- 1.56 1 2 cbr 1000 ------- 2 1.0 3.1 70 75
r 1.566 1 2 cbr 1000 ------- 2 1.0 3.1 69 74
+ 1.566 2 3 cbr 1000 ------- 2 1.0 3.1 69 74
d 1.566 2 3 cbr 1000 ------- 2 1.0 3.1 69 74
+ 1.568 1 2 cbr 1000 ------- 2 1.0 3.1 71 76
- 1.568 1 2 cbr 1000 ------- 2 1.0 3.1 71 76
r 1.574 1 2 cbr 1000 ------- 2 1.0 3.1 70 75
+ 1.574 2 3 cbr 1000 ------- 2 1.0 3.1 70 75
d 1.574 2 3 cbr 1000 ------- 2 1.0 3.1 70 75
+ 1.576 1 2 cbr 1000 ------- 2 1.0 3.1 72 77
- 1.576 1 2 cbr 1000 ------- 2 1.0 3.1 72 77
r 1.582 1 2 cbr 1000 ------- 2 1.0 3.1 71 76
+ 1.582 2 3 cbr 1000 ------- 2 1.0 3.1 71 76
d 1.582 2 3 cbr 1000 ------- 2 1.0 3.1 71 76
+ 1.584 1 2 cbr 1000 ------- 2 1.0 3.1 73 78
- 1.584 1 2 cbr 1000 ------- 2 1.0 3.1 73 78
- 1.58616 2 3 cbr 1000 ------- 2 1.0 3.1 43 48
r 1.59 1 2 cbr 1000 ------- 2 1.0 3.1 72 77
+ 1.59 2 3 cbr 1000 ------- 2 1.0 3.1 72 77
+ 1.592 1 2 cbr 1000 ------- 2 1.0 3.1 74 79
- 1.592 1 2 cbr 1000 ------- 2 1.0 3.1 74 79
r 1.598 1 2 cbr 1000 ------- 2 1.0 3.1 73 78
+ 1.598 2 3 cbr 1000 ------- 2 1.0 3.1 73 78
d 1.598 2 3 cbr 1000 ------- 2 1.0 3.1 73 78
+ 1.6 1 2 cbr 1000 ------- 2 1.0 3.1 75 80
- 1.6 1 2 cbr 1000 ------- 2 1.0 3.1 75 80
r 1.606 1 2 cbr 1000 ------- 2 1.0 3.1 74 79
+ 1.606 2 3 cbr 1000 ------- 2 1.0 3.1 74 79
d 1.606 2 3 cbr 1000 ------- 2 1.0 3.1 74 79
r 1.60616 2 3 cbr 1000 ------- 2 1.0 3.1 29 33
+ 1.608 1 2 cbr 1000 ------- 2 1.0 3.1 76 81
- 1.608 1 2 cbr 1000 ------- 2 1.0 3.1 76 81
r 1.614 1 2 cbr 1000 ------- 2 1.0 3.1 75 80
+ 1.614 2 3 cbr 1000 ------- 2 1.0 3.1 75 80
d 1.614 2 3 cbr 1000 ------- 2 1.0 3.1 75 80
+ 1.616 1 2 cbr 1000 ------- 2 1.0 3.1 77 82
- 1.616 1 2 cbr 1000 ------- 2 1.0 3.1 77 82
r 1.622 1 2 cbr 1000 ------- 2 1.0 3.1 76 81
+ 1.622 2 3 cbr 1000 ------- 2 1.0 3.1 76 81
d 1.622 2 3 cbr 1000 ------- 2 1.0 3.1 76 81
+ 1.624 1 2 cbr 1000 ------- 2 1.0 3.1 78 83
- 1.624 1 2 cbr 1000 ------- 2 1.0 3.1 78 83
r 1.63 1 2 cbr 1000 ------- 2 1.0 3.1 77 82
+ 1.63 2 3 cbr 1000 ------- 2 1.0 3.1 77 82
d 1.63 2 3 cbr 1000 ------- 2 1.0 3.1 77 82
+ 1.632 1 2 cbr 1000 ------- 2 1.0 3.1 79 84
- 1.632 1 2 cbr 1000 ------- 2 1.0 3.1 79 84
r 1.638 1 2 cbr 1000 ------- 2 1.0 3.1 78 83
+ 1.638 2 3 cbr 1000 ------- 2 1.0 3.1 78 83
d 1.638 2 3 cbr 1000 ------- 2 1.0 3.1 78 83
+ 1.64 1 2 cbr 1000 ------- 2 1.0 3.1 80 85
- 1.64 1 2 cbr 1000 ------- 2 1.0 3.1 80 85
r 1.646 1 2 cbr 1000 ------- 2 1.0 3.1 79 84
+ 1.646 2 3 cbr 1000 ------- 2 1.0 3.1 79 84
d 1.646 2 3 cbr 1000 ------- 2 1.0 3.1 79 84
+ 1.648 1 2 cbr 1000 ------- 2 1.0 3.1 81 86
- 1.648 1 2 cbr 1000 ------- 2 1.0 3.1 81 86
r 1.654 1 2 cbr 1000 ------- 2 1.0 3.1 80 85
+ 1.654 2 3 cbr 1000 ------- 2 1.0 3.1 80 85
d 1.654 2 3 cbr 1000 ------- 2 1.0 3.1 80 85
+ 1.656 1 2 cbr 1000 ------- 2 1.0 3.1 82 87
- 1.656 1 2 cbr 1000 ------- 2 1.0 3.1 82 87
r 1.662 1 2 cbr 1000 ------- 2 1.0 3.1 81 86
+ 1.662 2 3 cbr 1000 ------- 2 1.0 3.1 81 86
d 1.662 2 3 cbr 1000 ------- 2 1.0 3.1 81 86
+ 1.664 1 2 cbr 1000 ------- 2 1.0 3.1 83 88
- 1.664 1 2 cbr 1000 ------- 2 1.0 3.1 83 88
r 1.67 1 2 cbr 1000 ------- 2 1.0 3.1 82 87
+ 1.67 2 3 cbr 1000 ------- 2 1.0 3.1 82 87
d 1.67 2 3 cbr 1000 ------- 2 1.0 3.1 82 87
+ 1.672 1 2 cbr 1000 ------- 2 1.0 3.1 84 89
- 1.672 1 2 cbr 1000 ------- 2 1.0 3.1 84 89
r 1.678 1 2 cbr 1000 ------- 2 1.0 3.1 83 88
+ 1.678 2 3 cbr 1000 ------- 2 1.0 3.1 83 88
d 1.678 2 3 cbr 1000 ------- 2 1.0 3.1 83 88
+ 1.68 1 2 cbr 1000 ------- 2 1.0 3.1 85 90
- 1.68 1 2 cbr 1000 ------- 2 1.0 3.1 85 90
r 1.686 1 2 cbr 1000 ------- 2 1.0 3.1 84 89
+ 1.686 2 3 cbr 1000 ------- 2 1.0 3.1 84 89
d 1.686 2 3 cbr 1000 ------- 2 1.0 3.1 84 89
+ 1.688 1 2 cbr 1000 ------- 2 1.0 3.1 86 91
- 1.688 1 2 cbr 1000 ------- 2 1.0 3.1 86 91
r 1.694 1 2 cbr 1000 ------- 2 1.0 3.1 85 90
+ 1.694 2 3 cbr 1000 ------- 2 1.0 3.1 85 90
d 1.694 2 3 cbr 1000 ------- 2 1.0 3.1 85 90
+ 1.696 1 2 cbr 1000 ------- 2 1.0 3.1 87 92
- 1.696 1 2 cbr 1000 ------- 2 1.0 3.1 87 92
+ 1.699463 0 2 tcp 1040 ---A--- 1 0.0 3.0 1 93
- 1.699463 0 2 tcp 1040 ---A--- 1 0.0 3.0 1 93
- 1.700446 2 3 cbr 1000 ------- 2 1.0 3.1 58 63
r 1.702 1 2 cbr 1000 ------- 2 1.0 3.1 86 91
+ 1.702 2 3 cbr 1000 ------- 2 1.0 3.1 86 91
+ 1.704 1 2 cbr 1000 ------- 2 1.0 3.1 88 94
- 1.704 1 2 cbr 1000 ------- 2 1.0 3.1 88 94
r 1.71 1 2 cbr 1000 ------- 2 1.0 3.1 87 92
+ 1.71 2 3 cbr 1000 ------- 2 1.0 3.1 87 92
d 1.71 2 3 cbr 1000 ------- 2 1.0 3.1 87 92
+ 1.712 1 2 cbr 1000 ------- 2 1.0 3.1 89 95
- 1.712 1 2 cbr 1000 ------- 2 1.0 3.1 89 95
r 1.713623 0 2 tcp 1040 ---A--- 1 0.0 3.0 1 93
+ 1.713623 2 3 tcp 1040 ---A--- 1 0.0 3.0 1 93
d 1.713623 2 3 tcp 1040 ---A--- 1 0.0 3.0 1 93
r 1.718 1 2 cbr 1000 ------- 2 1.0 3.1 88 94
+ 1.718 2 3 cbr 1000 ------- 2 1.0 3.1 88 94
d 1.718 2 3 cbr 1000 ------- 2 1.0 3.1 88 94
+ 1.72 1 2 cbr 1000 ------- 2 1.0 3.1 90 96
- 1.72 1 2 cbr 1000 ------- 2 1.0 3.1 90 96
r 1.720446 2 3 cbr 1000 ------- 2 1.0 3.1 43 48
r 1.726 1 2 cbr 1000 ------- 2 1.0 3.1 89 95
+ 1.726 2 3 cbr 1000 ------- 2 1.0 3.1 89 95
d 1.726 2 3 cbr 1000 ------- 2 1.0 3.1 89 95
+ 1.728 1 2 cbr 1000 ------- 2 1.0 3.1 91 97
- 1.728 1 2 cbr 1000 ------- 2 1.0 3.1 91 97
r 1.734 1 2 cbr 1000 ------- 2 1.0 3.1 90 96
+ 1.734 2 3 cbr 1000 ------- 2 1.0 3.1 90 96
d 1.734 2 3 cbr 1000 ------- 2 1.0 3.1 90 96
+ 1.736 1 2 cbr 1000 ------- 2 1.0 3.1 92 98
- 1.736 1 2 cbr 1000 ------- 2 1.0 3.1 92 98
r 1.742 1 2 cbr 1000 ------- 2 1.0 3.1 91 97
+ 1.742 2 3 cbr 1000 ------- 2 1.0 3.1 91 97
d 1.742 2 3 cbr 1000 ------- 2 1.0 3.1 91 97
+ 1.744 1 2 cbr 1000 ------- 2 1.0 3.1 93 99
- 1.744 1 2 cbr 1000 ------- 2 1.0 3.1 93 99
r 1.75 1 2 cbr 1000 ------- 2 1.0 3.1 92 98
+ 1.75 2 3 cbr 1000 ------- 2 1.0 3.1 92 98
d 1.75 2 3 cbr 1000 ------- 2 1.0 3.1 92 98
+ 1.752 1 2 cbr 1000 ------- 2 1.0 3.1 94 100
- 1.752 1 2 cbr 1000 ------- 2 1.0 3.1 94 100
r 1.758 1 2 cbr 1000 ------- 2 1.0 3.1 93 99
+ 1.758 2 3 cbr 1000 ------- 2 1.0 3.1 93 99
d 1.758 2 3 cbr 1000 ------- 2 1.0 3.1 93 99
+ 1.76 1 2 cbr 1000 ------- 2 1.0 3.1 95 101
- 1.76 1 2 cbr 1000 ------- 2 1.0 3.1 95 101
r 1.766 1 2 cbr 1000 ------- 2 1.0 3.1 94 100
+ 1.766 2 3 cbr 1000 ------- 2 1.0 3.1 94 100
d 1.766 2 3 cbr 1000 ------- 2 1.0 3.1 94 100
+ 1.768 1 2 cbr 1000 ------- 2 1.0 3.1 96 102
- 1.768 1 2 cbr 1000 ------- 2 1.0 3.1 96 102
r 1.774 1 2 cbr 1000 ------- 2 1.0 3.1 95 101
+ 1.774 2 3 cbr 1000 ------- 2 1.0 3.1 95 101
d 1.774 2 3 cbr 1000 ------- 2 1.0 3.1 95 101
+ 1.776 1 2 cbr 1000 ------- 2 1.0 3.1 97 103
- 1.776 1 2 cbr 1000 ------- 2 1.0 3.1 97 103
r 1.782 1 2 cbr 1000 ------- 2 1.0 3.1 96 102
+ 1.782 2 3 cbr 1000 ------- 2 1.0 3.1 96 102
d 1.782 2 3 cbr 1000 ------- 2 1.0 3.1 96 102
+ 1.784 1 2 cbr 1000 ------- 2 1.0 3.1 98 104
- 1.784 1 2 cbr 1000 ------- 2 1.0 3.1 98 104
r 1.79 1 2 cbr 1000 ------- 2 1.0 3.1 97 103
+ 1.79 2 3 cbr 1000 ------- 2 1.0 3.1 97 103
d 1.79 2 3 cbr 1000 ------- 2 1.0 3.1 97 103
+ 1.792 1 2 cbr 1000 ------- 2 1.0 3.1 99 105
- 1.792 1 2 cbr 1000 ------- 2 1.0 3.1 99 105
r 1.798 1 2 cbr 1000 ------- 2 1.0 3.1 98 104
+ 1.798 2 3 cbr 1000 ------- 2 1.0 3.1 98 104
d 1.798 2 3 cbr 1000 ------- 2 1.0 3.1 98 104
+ 1.8 1 2 cbr 1000 ------- 2 1.0 3.1 100 106
- 1.8 1 2 cbr 1000 ------- 2 1.0 3.1 100 106
r 1.806 1 2 cbr 1000 ------- 2 1.0 3.1 99 105
+ 1.806 2 3 cbr 1000 ------- 2 1.0 3.1 99 105
d 1.806 2 3 cbr 1000 ------- 2 1.0 3.1 99 105
+ 1.808 1 2 cbr 1000 ------- 2 1.0 3.1 101 107
- 1.808 1 2 cbr 1000 ------- 2 1.0 3.1 101 107
r 1.814 1 2 cbr 1000 ------- 2 1.0 3.1 100 106
+ 1.814 2 3 cbr 1000 ------- 2 1.0 3.1 100 106
d 1.814 2 3 cbr 1000 ------- 2 1.0 3.1 100 106
- 1.814731 2 3 cbr 1000 ------- 2 1.0 3.1 72 77
+ 1.816 1 2 cbr 1000 ------- 2 1.0 3.1 102 108
- 1.816 1 2 cbr 1000 ------- 2 1.0 3.1 102 108
r 1.822 1 2 cbr 1000 ------- 2 1.0 3.1 101 107
+ 1.822 2 3 cbr 1000 ------- 2 1.0 3.1 101 107
+ 1.824 1 2 cbr 1000 ------- 2 1.0 3.1 103 109
- 1.824 1 2 cbr 1000 ------- 2 1.0 3.1 103 109
r 1.83 1 2 cbr 1000 ------- 2 1.0 3.1 102 108
+ 1.83 2 3 cbr 1000 ------- 2 1.0 3.1 102 108
d 1.83 2 3 cbr 1000 ------- 2 1.0 3.1 102 108
+ 1.832 1 2 cbr 1000 ------- 2 1.0 3.1 104 110
- 1.832 1 2 cbr 1000 ------- 2 1.0 3.1 104 110
r 1.834731 2 3 cbr 1000 ------- 2 1.0 3.1 58 63
r 1.838 1 2 cbr 1000 ------- 2 1.0 3.1 103 109
+ 1.838 2 3 cbr 1000 ------- 2 1.0 3.1 103 109
d 1.838 2 3 cbr 1000 ------- 2 1.0 3.1 103 109
+ 1.84 1 2 cbr 1000 ------- 2 1.0 3.1 105 111
- 1.84 1 2 cbr 1000 ------- 2 1.0 3.1 105 111
r 1.846 1 2 cbr 1000 ------- 2 1.0 3.1 104 110
+ 1.846 2 3 cbr 1000 ------- 2 1.0 3.1 104 110
d 1.846 2 3 cbr 1000 ------- 2 1.0 3.1 104 110
+ 1.848 1 2 cbr 1000 ------- 2 1.0 3.1 106 112
- 1.848 1 2 cbr 1000 ------- 2 1.0 3.1 106 112
r 1.854 1 2 cbr 1000 ------- 2 1.0 3.1 105 111
+ 1.854 2 3 cbr 1000 ------- 2 1.0 3.1 105 111
d 1.854 2 3 cbr 1000 ------- 2 1.0 3.1 105 111
+ 1.856 1 2 cbr 1000 ------- 2 1.0 3.1 107 113
- 1.856 1 2 cbr 1000 ------- 2 1.0 3.1 107 113
r 1.862 1 2 cbr 1000 ------- 2 1.0 3.1 106 112
+ 1.862 2 3 cbr 1000 ------- 2 1.0 3.1 106 112
d 1.862 2 3 cbr 1000 ------- 2 1.0 3.1 106 112
+ 1.864 1 2 cbr 1000 ------- 2 1.0 3.1 108 114
- 1.864 1 2 cbr 1000 ------- 2 1.0 3.1 108 114
r 1.87 1 2 cbr 1000 ------- 2 1.0 3.1 107 113
+ 1.87 2 3 cbr 1000 ------- 2 1.0 3.1 107 113
d 1.87 2 3 cbr 1000 ------- 2 1.0 3.1 107 113
+ 1.872 1 2 cbr 1000 ------- 2 1.0 3.1 109 115
- 1.872 1 2 cbr 1000 ------- 2 1.0 3.1 109 115
r 1.878 1 2 cbr 1000 ------- 2 1.0 3.1 108 114
+ 1.878 2 3 cbr 1000 ------- 2 1.0 3.1 108 114
d 1.878 2 3 cbr 1000 ------- 2 1.0 3.1 108 114
+ 1.88 1 2 cbr 1000 ------- 2 1.0 3.1 110 116
- 1.88 1 2 cbr 1000 ------- 2 1.0 3.1 110 116
r 1.886 1 2 cbr 1000 ------- 2 1.0 3.1 109 115
+ 1.886 2 3 cbr 1000 ------- 2 1.0 3.1 109 115
d 1.886 2 3 cbr 1000 ------- 2 1.0 3.1 109 115
+ 1.888 1 2 cbr 1000 ------- 2 1.0 3.1 111 117
- 1.888 1 2 cbr 1000 ------- 2 1.0 3.1 111 117
r 1.894 1 2 cbr 1000 ------- 2 1.0 3.1 110 116
+ 1.894 2 3 cbr 1000 ------- 2 1.0 3.1 110 116
d 1.894 2 3 cbr 1000 ------- 2 1.0 3.1 110 116
+ 1.896 1 2 cbr 1000 ------- 2 1.0 3.1 112 118
- 1.896 1 2 cbr 1000 ------- 2 1.0 3.1 112 118
r 1.902 1 2 cbr 1000 ------- 2 1.0 3.1 111 117
+ 1.902 2 3 cbr 1000 ------- 2 1.0 3.1 111 117
d 1.902 2 3 cbr 1000 ------- 2 1.0 3.1 111 117
+ 1.904 1 2 cbr 1000 ------- 2 1.0 3.1 113 119
- 1.904 1 2 cbr 1000 ------- 2 1.0 3.1 113 119
r 1.91 1 2 cbr 1000 ------- 2 1.0 3.1 112 118
+ 1.91 2 3 cbr 1000 ------- 2 1.0 3.1 112 118
d 1.91 2 3 cbr 1000 ------- 2 1.0 3.1 112 118
+ 1.912 1 2 cbr 1000 ------- 2 1.0 3.1 114 120
- 1.912 1 2 cbr 1000 ------- 2 1.0 3.1 114 120
r 1.918 1 2 cbr 1000 ------- 2 1.0 3.1 113 119
+ 1.918 2 3 cbr 1000 ------- 2 1.0 3.1 113 119
d 1.918 2 3 cbr 1000 ------- 2 1.0 3.1 113 119
+ 1.92 1 2 cbr 1000 ------- 2 1.0 3.1 115 121
- 1.92 1 2 cbr 1000 ------- 2 1.0 3.1 115 121
r 1.926 1 2 cbr 1000 ------- 2 1.0 3.1 114 120
+ 1.926 2 3 cbr 1000 ------- 2 1.0 3.1 114 120
d 1.926 2 3 cbr 1000 ------- 2 1.0 3.1 114 120
+ 1.928 1 2 cbr 1000 ------- 2 1.0 3.1 116 122
- 1.928 1 2 cbr 1000 ------- 2 1.0 3.1 116 122
- 1.929017 2 3 cbr 1000 ------- 2 1.0 3.1 86 91
r 1.934 1 2 cbr 1000 ------- 2 1.0 3.1 115 121
+ 1.934 2 3 cbr 1000 ------- 2 1.0 3.1 115 121
+ 1.936 1 2 cbr 1000 ------- 2 1.0 3.1 117 123
- 1.936 1 2 cbr 1000 ------- 2 1.0 3.1 117 123
r 1.942 1 2 cbr 1000 ------- 2 1.0 3.1 116 122
+ 1.942 2 3 cbr 1000 ------- 2 1.0 3.1 116 122
d 1.942 2 3 cbr 1000 ------- 2 1.0 3.1 116 122
+ 1.944 1 2 cbr 1000 ------- 2 1.0 3.1 118 124
- 1.944 1 2 cbr 1000 ------- 2 1.0 3.1 118 124
r 1.949017 2 3 cbr 1000 ------- 2 1.0 3.1 72 77
r 1.95 1 2 cbr 1000 ------- 2 1.0 3.1 117 123
+ 1.95 2 3 cbr 1000 ------- 2 1.0 3.1 117 123
d 1.95 2 3 cbr 1000 ------- 2 1.0 3.1 117 123
+ 1.952 1 2 cbr 1000 ------- 2 1.0 3.1 119 125
- 1.952 1 2 cbr 1000 ------- 2 1.0 3.1 119 125
r 1.958 1 2 cbr 1000 ------- 2 1.0 3.1 118 124
+ 1.958 2 3 cbr 1000 ------- 2 1.0 3.1 118 124
d 1.958 2 3 cbr 1000 ------- 2 1.0 3.1 118 124
+ 1.96 1 2 cbr 1000 ------- 2 1.0 3.1 120 126
- 1.96 1 2 cbr 1000 ------- 2 1.0 3.1 120 126
r 1.966 1 2 cbr 1000 ------- 2 1.0 3.1 119 125
+ 1.966 2 3 cbr 1000 ------- 2 1.0 3.1 119 125
d 1.966 2 3 cbr 1000 ------- 2 1.0 3.1 119 125
+ 1.968 1 2 cbr 1000 ------- 2 1.0 3.1 121 127
- 1.968 1 2 cbr 1000 ------- 2 1.0 3.1 121 127
r 1.974 1 2 cbr 1000 ------- 2 1.0 3.1 120 126
+ 1.974 2 3 cbr 1000 ------- 2 1.0 3.1 120 126
d 1.974 2 3 cbr 1000 ------- 2 1.0 3.1 120 126
+ 1.976 1 2 cbr 1000 ------- 2 1.0 3.1 122 128
- 1.976 1 2 cbr 1000 ------- 2 1.0 3.1 122 128
r 1.982 1 2 cbr 1000 ------- 2 1.0 3.1 121 127
+ 1.982 2 3 cbr 1000 ------- 2 1.0 3.1 121 127
d 1.982 2 3 cbr 1000 ------- 2 1.0 3.1 121 127
+ 1.984 1 2 cbr 1000 ------- 2 1.0 3.1 123 129
- 1.984 1 2 cbr 1000 ------- 2 1.0 3.1 123 129
r 1.99 1 2 cbr 1000 ------- 2 1.0 3.1 122 128
+ 1.99 2 3 cbr 1000 ------- 2 1.0 3.1 122 128
d 1.99 2 3 cbr 1000 ------- 2 1.0 3.1 122 128
+ 1.992 1 2 cbr 1000 ------- 2 1.0 3.1 124 130
- 1.992 1 2 cbr 1000 ------- 2 1.0 3.1 124 130
r 1.998 1 2 cbr 1000 ------- 2 1.0 3.1 123 129
+ 1.998 2 3 cbr 1000 ------- 2 1.0 3.1 123 129
d 1.998 2 3 cbr 1000 ------- 2 1.0 3.1 123 129
+ 2 1 2 cbr 1000 ------- 2 1.0 3.1 125 131
- 2 1 2 cbr 1000 ------- 2 1.0 3.1 125 131
r 2.006 1 2 cbr 1000 ------- 2 1.0 3.1 124 130
+ 2.006 2 3 cbr 1000 ------- 2 1.0 3.1 124 130