V -t * -v 1.0a5 -a 0
A -t * -n 1 -p 0 -o 0x7fffffff -c 30 -a 1
A -t * -h 1 -m 1073741823 -s 0
c -t * -i 1 -n Blue
c -t * -i 2 -n Red
n -t * -a 0 -s 0 -S UP -v circle -c black -i black
n -t * -a 1 -s 1 -S UP -v circle -c black -i black
n -t * -a 2 -s 2 -S UP -v circle -c black -i black
n -t * -a 3 -s 3 -S UP -v circle -c black -i black
l -t * -s 0 -d 2 -S UP -r 2000000 -D 0.01 -c black
l -t * -s 1 -d 2 -S UP -r 2000000 -D 0.01 -c black
l -t * -s 2 -d 3 -S UP -r 70000 -D 0.02 -c black
q -t * -s 2 -d 3 -a 0.5
+ -t 1 -s 1 -d 2 -p cbr -e 1000 -c 2 -i 0 -a 2 -x {1.0 3.1 0 ------- null}
- -t 1 -s 1 -d 2 -p cbr -e 1000 -c 2 -i 0 -a 2 -x {1.0 3.1 0 ------- null}
h -t 1 -s 1 -d 2 -p cbr -e 1000 -c 2 -i 0 -a 2 -x {1.0 3.1 -1 ------- null}
+ -t 1 -s 0 -d 2 -p tcp -e 40 -c 1 -i 1 -a 1 -x {0.0 3.0 0 ------- null}
- -t 1 -s 0 -d 2 -p tcp -e 40 -c 1 -i 1 -a 1 -x {0.0 3.0 0 ------- null}
h -t 1 -s 0 -d 2 -p tcp -e 40 -c 1 -i 1 -a 1 -x {0.0 3.0 -1 ------- null}
+ -t 1.008 -s 1 -d 2 -p cbr -e 1000 -c 2 -i 2 -a 2 -x {1.0 3.1 1 ------- null}
- -t 1.008 -s 1 -d 2 -p cbr -e 1000 -c 2 -i 2 -a 2 -x {1.0 3.1 1 ------- null}
h -t 1.008 -s 1 -d 2 -p cbr -e 1000 -c 2 -i 2 -a 2 -x {1.0 3.1 -1 ------- null}
r -t 1.01016 -s 0 -d 2 -p tcp -e 40 -c 1 -i 1 -a 1 -x {0.0 3.0 0 ------- null}
+ -t 1.01016 -s 2 -d 3 -p tcp -e 40 -c 1 -i 1 -a 1 -x {0.0 3.0 0 ------- null}
- -t 1.01016 -s 2 -d 3 -p tcp -e 40 -c 1 -i 1 -a 1 -x {0.0 3.0 0 ------- null}
h -t 1.01016 -s 2 -d 3 -p tcp -e 40 -c 1 -i 1 -a 1 -x {0.0 3.0 -1 ------- null}
r -t 1.014 -s 1 -d 2 -p cbr -e 1000 -c 2 -i 0 -a 2 -x {1.0 3.1 0 ------- null}
+ -t 1.014 -s 2 -d 3 -p cbr -e 1000 -c 2 -i 0 -a 2 -x {1.0 3.1 0 ------- null}
- -t 1.01473142857143 -s 2 -d 3 -p cbr -e 1000 -c 2 -i 0 -a 2 -x {1.0 3.1 0 ------- null}
h -t 1.01473142857143 -s 2 -d 3 -p cbr -e 1000 -c 2 -i 0 -a 2 -x {1.0 3.1 -1 ------- null}
+ -t 1.016 -s 1 -d 2 -p cbr -e 1000 -c 2 -i 3 -a 2 -x {1.0 3.1 2 ------- null}
- -t 1.016 -s 1 -d 2 -p cbr -e 1000 -c 2 -i 3 -a 2 -x {1.0 3.1 2 ------- null}
h -t 1.016 -s 1 -d 2 -p cbr -e 1000 -c 2 -i 3 -a 2 -x {1.0 3.1 -1 ------- null}
r -t 1.022 -s 1 -d 2 -p cbr -e 1000 -c 2 -i 2 -a 2 -x {1.0 3.1 1 ------- null}
+ -t 1.022 -s 2 -d 3 -p cbr -e 1000 -c 2 -i 2 -a 2 -x {1.0 3.1 1 ------- null}
+ -t 1.024 -s 1 -d 2 -p cbr -e 1000 -c 2 -i 4 -a 2 -x {1.0 3.1 3 ------- null}
- -t 1.024 -s 1 -d 2 -p cbr -e 1000 -c 2 -i 4 -a 2 -x {1.0 3.1 3 ------- null}
h -t 1.024 -s 1 -d 2 -p cbr -e 1000 -c 2 -i 4 -a 2 -x {1.0 3.1 -1 ------- null}
r -t 1.03 -s 1 -d 2 -p cbr -e 1000 -c 2 -i 3 -a 2 -x {1.0 3.1 2 ------- null}
+ -t 1.03 -s 2 -d 3 -p cbr -e 1000 -c 2 -i 3 -a 2 -x {1.0 3.1 2 ------- null}
+ -t 1.032 -s 1 -d 2 -p cbr -e 1000 -c 2 -i 5 -a 2 -x {1.0 3.1 4 ------- null}
- -t 1.032 -s 1 -d 2 -p cbr -e 1000 -c 2 -i 5 -a 2 -x {1.0 3.1 4 ------- null}
h -t 1.032 -s 1 -d 2 -p cbr -e 1000 -c 2 -i 5 -a 2 -x {1.0 3.1 -1 ------- null}
r -t 1.03473142857143 -s 2 -d 3 -p tcp -e 40 -c 1 -i 1 -a 1 -x {0.0 3.0 0 ------- null}
+ -t 1.03473142857143 -s 3 -d 2 -p ack -e 40 -c 1 -i 6 -a 1 -x {3.0 0.0 0 ------- null}
- -t 1.03473142857143 -s 3 -d 2 -p ack -e 40 -c 1 -i 6 -a 1 -x {3.0 0.0 0 ------- null}
h -t 1.03473142857143 -s 3 -d 2 -p ack -e 40 -c 1 -i 6 -a 1 -x {3.0 0.0 -1 ------- null}
r -t 1.038 -s 1 -d 2 -p cbr -e 1000 -c 2 -i 4 -a 2 -x {1.0 3.1 3 ------- null}
+ -t 1.038 -s 2 -d 3 -p cbr -e 1000 -c 2 -i 4 -a 2 -x {1.0 3.1 3 ------- null}
d -t 1.038 -s 2 -d 3 -p cbr -e 1000 -c 2 -i 4 -a 2 -x {1.0 3.1 3 ------- null}
+ -t 1.04 -s 1 -d 2 -p cbr -e 1000 -c 2 -i 7 -a 2 -x {1.0 3.1 5 ------- null}
- -t 1.04 -s 1 -d 2 -p cbr -e 1000 -c 2 -i 7 -a 2 -x {1.0 3.1 5 ------- null}
h -t 1.04 -s 1 -d 2 -p cbr -e 1000 -c 2 -i 7 -a 2 -x {1.0 3.1 -1 ------- null}
r -t 1.046 -s 1 -d 2 -p cbr -e 1000 -c 2 -i 5 -a 2 -x {1.0 3.1 4 ------- null}
+ -t 1.046 -s 2 -d 3 -p cbr -e 1000 -c 2 -i 5 -a 2 -x {1.0 3.1 4 ------- null}
d -t 1.046 -s 2 -d 3 -p cbr -e 1000 -c 2 -i 5 -a 2 -x {1.0 3.1 4 ------- null}
+ -t 1.048 -s 1 -d 2 -p cbr -e 1000 -c 2 -i 8 -a 2 -x {1.0 3.1 6 ------- null}
- -t 1.048 -s 1 -d 2 -p cbr -e 1000 -c 2 -i 8 -a 2 -x {1.0 3.1 6 ------- null}
h -t 1.048 -s 1 -d 2 -p cbr -e 1000 -c 2 -i 8 -a 2 -x {1.0 3.1 -1 ------- null}
r -t 1.054 -s 1 -d 2 -p cbr -e 1000 -c 2 -i 7 -a 2 -x {1.0 3.1 5 ------- null}
+ -t 1.054 -s 2 -d 3 -p cbr -e 1000 -c 2 -i 7 -a 2 -x {1.0 3.1 5 ------- null}
d -t 1.054 -s 2 -d 3 -p cbr -e 1000 -c 2 -i 7 -a 2 -x {1.0 3.1 5 ------- null}
+ -t 1.056 -s 1 -d 2 -p cbr -e 1000 -c 2 -i 9 -a 2 -x {1.0 3.1 7 ------- null}
- -t 1.056 -s 1 -d 2 -p cbr -e 1000 -c 2 -i 9 -a 2 -x {1.0 3.1 7 ------- null}
h -t 1.056 -s 1 -d 2 -p cbr -e 1000 -c 2 -i 9 -a 2 -x {1.0 3.1 -1 ------- null}
r -t 1.05930285714286 -s 3 -d 2 -p ack -e 40 -c 1 -i 6 -a 1 -x {3.0 0.0 0 ------- null}
+ -t 1.05930285714286 -s 2 -d 0 -p ack -e 40 -c 1 -i 6 -a 1 -x {3.0 0.0 0 ------- null}
- -t 1.05930285714286 -s 2 -d 0 -p ack -e 40 -c 1 -i 6 -a 1 -x {3.0 0.0 0 ------- null}
h -t 1.05930285714286 -s 2 -d 0 -p ack -e 40 -c 1 -i 6 -a 1 -x {3.0 0.0 -1 ------- null}
r -t 1.062 -s 1 -d 2 -p cbr -e 1000 -c 2 -i 8 -a 2 -x {1.0 3.1 6 ------- null}
+ -t 1.062 -s 2 -d 3 -p cbr -e 1000 -c 2 -i 8 -a 2 -x {1.0 3.1 6 ------- null}
d -t 1.062 -s 2 -d 3 -p cbr -e 1000 -c 2 -i 8 -a 2 -x {1.0 3.1 6 ------- null}
+ -t 1.064 -s 1 -d 2 -p cbr -e 1000 -c 2 -i 10 -a 2 -x {1.0 3.1 8 ------- null}
- -t 1.064 -s 1 -d 2 -p cbr -e 1000 -c 2 -i 10 -a 2 -x {1.0 3.1 8 ------- null}
h -t 1.064 -s 1 -d 2 -p cbr -e 1000 -c 2 -i 10 -a 2 -x {1.0 3.1 -1 ------- null}
r -t 1.06946285714286 -s 2 -d 0 -p ack -e 40 -c 1 -i 6 -a 1 -x {3.0 0.0 0 ------- null}
+ -t 1.06946285714286 -s 0 -d 2 -p tcp -e 1040 -c 1 -i 11 -a 1 -x {0.0 3.0 1 ------- null}
- -t 1.06946285714286 -s 0 -d 2 -p tcp -e 1040 -c 1 -i 11 -a 1 -x {0.0 3.0 1 ------- null}
h -t 1.06946285714286 -s 0 -d 2 -p tcp -e 1040 -c 1 -i 11 -a 1 -x {0.0 3.0 -1 ------- null}
+ -t 1.06946285714286 -s 0 -d 2 -p tcp -e 1040 -c 1 -i 12 -a 1 -x {0.0 3.0 2 ------- null}
r -t 1.07 -s 1 -d 2 -p cbr -e 1000 -c 2 -i 9 -a 2 -x {1.0 3.1 7 ------- null}
+ -t 1.07 -s 2 -d 3 -p cbr -e 1000 -c 2 -i 9 -a 2 -x {1.0 3.1 7 ------- null}
d -t 1.07 -s 2 -d 3 -p cbr -e 1000 -c 2 -i 9 -a 2 -x {1.0 3.1 7 ------- null}
+ -t 1.072 -s 1 -d 2 -p cbr -e 1000 -c 2 -i 13 -a 2 -x {1.0 3.1 9 ------- null}
- -t 1.072 -s 1 -d 2 -p cbr -e 1000 -c 2 -i 13 -a 2 -x {1.0 3.1 9 ------- null}
h -t 1.072 -s 1 -d 2 -p cbr -e 1000 -c 2 -i 13 -a 2 -x {1.0 3.1 -1 ------- null}
- -t 1.07362285714286 -s 0 -d 2 -p tcp -e 1040 -c 1 -i 12 -a 1 -x {0.0 3.0 2 ------- null}
h -t 1.07362285714286 -s 0 -d 2 -p tcp -e 1040 -c 1 -i 12 -a 1 -x {0.0 3.0 -1 ------- null}
r -t 1.078 -s 1 -d 2 -p cbr -e 1000 -c 2 -i 10 -a 2 -x {1.0 3.1 8 ------- null}
+ -t 1.078 -s 2 -d 3 -p cbr -e 1000 -c 2 -i 10 -a 2 -x {1.0 3.1 8 ------- null}
d -t 1.078 -s 2 -d 3 -p cbr -e 1000 -c 2 -i 10 -a 2 -x {1.0 3.1 8 ------- null}
+ -t 1.08 -s 1 -d 2 -p cbr -e 1000 -c 2 -i 14 -a 2 -x {1.0 3.1 10 ------- null}
- -t 1.08 -s 1 -d 2 -p cbr -e 1000 -c 2 -i 14 -a 2 -x {1.0 3.1 10 ------- null}
h -t 1.08 -s 1 -d 2 -p cbr -e 1000 -c 2 -i 14 -a 2 -x {1.0 3.1 -1 ------- null}
r -t 1.08362285714286 -s 0 -d 2 -p tcp -e 1040 -c 1 -i 11 -a 1 -x {0.0 3.0 1 ------- null}
+ -t 1.08362285714286 -s 2 -d 3 -p tcp -e 1040 -c 1 -i 11 -a 1 -x {0.0 3.0 1 ------- null}
d -t 1.08362285714286 -s 2 -d 3 -p tcp -e 1040 -c 1 -i 11 -a 1 -x {0.0 3.0 1 ------- null}
r -t 1.086 -s 1 -d 2 -p cbr -e 1000 -c 2 -i 13 -a 2 -x {1.0 3.1 9 ------- null}
+ -t 1.086 -s 2 -d 3 -p cbr -e 1000 -c 2 -i 13 -a 2 -x {1.0 3.1 9 ------- null}
d -t 1.086 -s 2 -d 3 -p cbr -e 1000 -c 2 -i 13 -a 2 -x {1.0 3.1 9 ------- null}
r -t 1.08778285714286 -s 0 -d 2 -p tcp -e 1040 -c 1 -i 12 -a 1 -x {0.0 3.0 2 ------- null}
+ -t 1.08778285714286 -s 2 -d 3 -p tcp -e 1040 -c 1 -i 12 -a 1 -x {0.0 3.0 2 ------- null}
d -t 1.08778285714286 -s 2 -d 3 -p tcp -e 1040 -c 1 -i 12 -a 1 -x {0.0 3.0 2 ------- null}
+ -t 1.088 -s 1 -d 2 -p cbr -e 1000 -c 2 -i 15 -a 2 -x {1.0 3.1 11 ------- null}
- -t 1.088 -s 1 -d 2 -p cbr -e 1000 -c 2 -i 15 -a 2 -x {1.0 3.1 11 ------- null}
h -t 1.088 -s 1 -d 2 -p cbr -e 1000 -c 2 -i 15 -a 2 -x {1.0 3.1 -1 ------- null}
r -t 1.094 -s 1 -d 2 -p cbr -e 1000 -c 2 -i 14 -a 2 -x {1.0 3.1 10 ------- null}
+ -t 1.094 -s 2 -d 3 -p cbr -e 1000 -c 2 -i 14 -a 2 -x {1.0 3.1 10 ------- null}
d -t 1.094 -s 2 -d 3 -p cbr -e 1000 -c 2 -i 14 -a 2 -x {1.0 3.1 10 ------- null}
+ -t 1.096 -s 1 -d 2 -p cbr -e 1000 -c 2 -i 16 -a 2 -x {1.0 3.1 12 ------- null}
- -t 1.096 -s 1 -d 2 -p cbr -e 1000 -c 2 -i 16 -a 2 -x {1.0 3.1 12 ------- null}
h -t 1.096 -s 1 -d 2 -p cbr -e 1000 -c 2 -i 16 -a 2 -x {1.0 3.1 -1 ------- null}
r -t 1.102 -s 1 -d 2 -p cbr -e 1000 -c 2 -i 15 -a 2 -x {1.0 3.1 11 ------- null}
+ -t 1.102 -s 2 -d 3 -p cbr -e 1000 -c 2 -i 15 -a 2 -x {1.0 3.1 11 ------- null}
d -t 1.102 -s 2 -d 3 -p cbr -e 1000 -c 2 -i 15 -a 2 -x {1.0 3.1 11 ------- null}
+ -t 1.104 -s 1 -d 2 -p cbr -e 1000 -c 2 -i 17 -a 2 -x {1.0 3.1 13 ------- null}
- -t 1.104 -s 1 -d 2 -p cbr -e 1000 -c 2 -i 17 -a 2 -x {1.0 3.1 13 ------- null}
h -t 1.104 -s 1 -d 2 -p cbr -e 1000 -c 2 -i 17 -a 2 -x {1.0 3.1 -1 ------- null}
r -t 1.11 -s 1 -d 2 -p cbr -e 1000 -c 2 -i 16 -a 2 -x {1.0 3.1 12 ------- null}
+ -t 1.11 -s 2 -d 3 -p cbr -e 1000 -c 2 -i 16 -a 2 -x {1.0 3.1 12 ------- null}
d -t 1.11 -s 2 -d 3 -p cbr -e 1000 -c 2 -i 16 -a 2 -x {1.0 3.1 12 ------- null}
+ -t 1.112 -s 1 -d 2 -p cbr -e 1000 -c 2 -i 18 -a 2 -x {1.0 3.1 14 ------- null}
- -t 1.112 -s 1 -d 2 -p cbr -e 1000 -c 2 -i 18 -a 2 -x {1.0 3.1 14 ------- null}
h -t 1.112 -s 1 -d 2 -p cbr -e 1000 -c 2 -i 18 -a 2 -x {1.0 3.1 -1 ------- null}
r -t 1.118 -s 1 -d 2 -p cbr -e 1000 -c 2 -i 17 -a 2 -x {1.0 3.1 13 ------- null}
+ -t 1.118 -s 2 -d 3 -p cbr -e 1000 -c 2 -i 17 -a 2 -x {1.0 3.1 13 ------- null}
d -t 1.118 -s 2 -d 3 -p cbr -e 1000 -c 2 -i 17 -a 2 -x {1.0 3.1 13 ------- null}
+ -t 1.12 -s 1 -d 2 -p cbr -e 1000 -c 2 -i 19 -a 2 -x {1.0 3.1 15 ------- null}
- -t 1.12 -s 1 -d 2 -p cbr -e 1000 -c 2 -i 19 -a 2 -x {1.0 3.1 15 ------- null}
h -t 1.12 -s 1 -d 2 -p cbr -e 1000 -c 2 -i 19 -a 2 -x {1.0 3.1 -1 ------- null}
r -t 1.126 -s 1 -d 2 -p cbr -e 1000 -c 2 -i 18 -a 2 -x {1.0 3.1 14 ------- null}
+ -t 1.126 -s 2 -d 3 -p cbr -e 1000 -c 2 -i 18 -a 2 -x {1.0 3.1 14 ------- null}
d -t 1.126 -s 2 -d 3 -p cbr -e 1000 -c 2 -i 18 -a 2 -x {1.0 3.1 14 ------- null}
+ -t 1.128 -s 1 -d 2 -p cbr -e 1000 -c 2 -i 20 -a 2 -x {1.0 3.1 16 ------- null}
- -t 1.128 -s 1 -d 2 -p cbr -e 1000 -c 2 -i 20 -a 2 -x {1.0 3.1 16 ------- null}
h -t 1.128 -s 1 -d 2 -p cbr -e 1000 -c 2 -i 20 -a 2 -x {1.0 3.1 -1 ------- null}
- -t 1.12901714285714 -s 2 -d 3 -p cbr -e 1000 -c 2 -i 2 -a 2 -x {1.0 3.1 1 ------- null}
h -t 1.12901714285714 -s 2 -d 3 -p cbr -e 1000 -c 2 -i 2 -a 2 -x {1.0 3.1 -1 ------- null}
r -t 1.134 -s 1 -d 2 -p cbr -e 1000 -c 2 -i 19 -a 2 -x {1.0 3.1 15 ------- null}
+ -t 1.134 -s 2 -d 3 -p cbr -e 1000 -c 2 -i 19 -a 2 -x {1.0 3.1 15 ------- null}
+ -t 1.136 -s 1 -d 2 -p cbr -e 1000 -c 2 -i 21 -a 2 -x {1.0 3.1 17 ------- null}
- -t 1.136 -s 1 -d 2 -p cbr -e 1000 -c 2 -i 21 -a 2 -x {1.0 3.1 17 ------- null}
h -t 1.136 -s 1 -d 2 -p cbr -e 1000 -c 2 -i 21 -a 2 -x {1.0 3.1 -1 ------- null}
r -t 1.142 -s 1 -d 2 -p cbr -e 1000 -c 2 -i 20 -a 2 -x {1.0 3.1 16 ------- null}
+ -t 1.142 -s 2 -d 3 -p cbr -e 1000 -c 2 -i 20 -a 2 -x {1.0 3.1 16 ------- null}
d -t 1.142 -s 2 -d 3 -p cbr -e 1000 -c 2 -i 20 -a 2 -x {1.0 3.1 16 ------- null}
+ -t 1.144 -s 1 -d 2 -p cbr -e 1000 -c 2 -i 22 -a 2 -x {1.0 3.1 18 ------- null}
- -t 1.144 -s 1 -d 2 -p cbr -e 1000 -c 2 -i 22 -a 2 -x {1.0 3.1 18 ------- null}
h -t 1.144 -s 1 -d 2 -p cbr -e 1000 -c 2 -i 22 -a 2 -x {1.0 3.1 -1 ------- null}
r -t 1.14901714285714 -s 2 -d 3 -p cbr -e 1000 -c 2 -i 0 -a 2 -x {1.0 3.1 0 ------- null}
r -t 1.15 -s 1 -d 2 -p cbr -e 1000 -c 2 -i 21 -a 2 -x {1.0 3.1 17 ------- null}
+ -t 1.15 -s 2 -d 3 -p cbr -e 1000 -c 2 -i 21 -a 2 -x {1.0 3.1 17 ------- null}
d -t 1.15 -s 2 -d 3 -p cbr -e 1000 -c 2 -i 21 -a 2 -x {1.0 3.1 17 ------- null}
+ -t 1.152 -s 1 -d 2 -p cbr -e 1000 -c 2 -i 23 -a 2 -x {1.0 3.1 19 ------- null}
- -t 1.152 -s 1 -d 2 -p cbr -e 1000 -c 2 -i 23 -a 2 -x {1.0 3.1 19 ------- null}
h -t 1.152 -s 1 -d 2 -p cbr -e 1000 -c 2 -i 23 -a 2 -x {1.0 3.1 -1 ------- null}
r -t 1.158 -s 1 -d 2 -p cbr -e 1000 -c 2 -i 22 -a 2 -x {1.0 3.1 18 ------- null}
+ -t 1.158 -s 2 -d 3 -p cbr -e 1000 -c 2 -i 22 -a 2 -x {1.0 3.1 18 ------- null}
d -t 1.158 -s 2 -d 3 -p cbr -e 1000 -c 2 -i 22 -a 2 -x {1.0 3.1 18 ------- null}
+ -t 1.16 -s 1 -d 2 -p cbr -e 1000 -c 2 -i 24 -a 2 -x {1.0 3.1 20 ------- null}
- -t 1.16 -s 1 -d 2 -p cbr -e 1000 -c 2 -i 24 -a 2 -x {1.0 3.1 20 ------- null}
h -t 1.16 -s 1 -d 2 -p cbr -e 1000 -c 2 -i 24 -a 2 -x {1.0 3.1 -1 ------- null}
r -t 1.166 -s 1 -d 2 -p cbr -e 1000 -c 2 -i 23 -a 2 -x {1.0 3.1 19 ------- null}
+ -t 1.166 -s 2 -d 3 -p cbr -e 1000 -c 2 -i 23 -a 2 -x {1.0 3.1 19 ------- null}
d -t 1.166 -s 2 -d 3 -p cbr -e 1000 -c 2 -i 23 -a 2 -x {1.0 3.1 19 ------- null}
+ -t 1.168 -s 1 -d 2 -p cbr -e 1000 -c 2 -i 25 -a 2 -x {1.0 3.1 21 ------- null}
- -t 1.168 -s 1 -d 2 -p cbr -e 1000 -c 2 -i 25 -a 2 -x {1.0 3.1 21 ------- null}
h -t 1.168 -s 1 -d 2 -p cbr -e 1000 -c 2 -i 25 -a 2 -x {1.0 3.1 -1 ------- null}
r -t 1.174 -s 1 -d 2 -p cbr -e 1000 -c 2 -i 24 -a 2 -x {1.0 3.1 20 ------- null}
+ -t 1.174 -s 2 -d 3 -p cbr -e 1000 -c 2 -i 24 -a 2 -x {1.0 3.1 20 ------- null}
d -t 1.174 -s 2 -d 3 -p cbr -e 1000 -c 2 -i 24 -a 2 -x {1.0 3.1 20 ------- null}
+ -t 1.176 -s 1 -d 2 -p cbr -e 1000 -c 2 -i 26 -a 2 -x {1.0 3.1 22 ------- null}
- -t 1.176 -s 1 -d 2 -p cbr -e 1000 -c 2 -i 26 -a 2 -x {1.0 3.1 22 ------- null}
h -t 1.176 -s 1 -d 2 -p cbr -e 1000 -c 2 -i 26 -a 2 -x {1.0 3.1 -1 ------- null}
r -t 1.182 -s 1 -d 2 -p cbr -e 1000 -c 2 -i 25 -a 2 -x {1.0 3.1 21 ------- null}
+ -t 1.182 -s 2 -d 3 -p cbr -e 1000 -c 2 -i 25 -a 2 -x {1.0 3.1 21 ------- null}
d -t 1.182 -s 2 -d 3 -p cbr -e 1000 -c 2 -i 25 -a 2 -x {1.0 3.1 21 ------- null}
+ -t 1.184 -s 1 -d 2 -p cbr -e 1000 -c 2 -i 27 -a 2 -x {1.0 3.1 23 ------- null}
- -t 1.184 -s 1 -d 2 -p cbr -e 1000 -c 2 -i 27 -a 2 -x {1.0 3.1 23 ------- null}
h -t 1.184 -s 1 -d 2 -p cbr -e 1000 -c 2 -i 27 -a 2 -x {1.0 3.1 -1 ------- null}
r -t 1.19 -s 1 -d 2 -p cbr -e 1000 -c 2 -i 26 -a 2 -x {1.0 3.1 22 ------- null}
+ -t 1.19 -s 2 -d 3 -p cbr -e 1000 -c 2 -i 26 -a 2 -x {1.0 3.1 22 ------- null}
d -t 1.19 -s 2 -d 3 -p cbr -e 1000 -c 2 -i 26 -a 2 -x {1.0 3.1 22 ------- null}
+ -t 1.192 -s 1 -d 2 -p cbr -e 1000 -c 2 -i 28 -a 2 -x {1.0 3.1 24 ------- null}
- -t 1.192 -s 1 -d 2 -p cbr -e 1000 -c 2 -i 28 -a 2 -x {1.0 3.1 24 ------- null}
h -t 1.192 -s 1 -d 2 -p cbr -e 1000 -c 2 -i 28 -a 2 -x {1.0 3.1 -1 ------- null}
r -t 1.198 -s 1 -d 2 -p cbr -e 1000 -c 2 -i 27 -a 2 -x {1.0 3.1 23 ------- null}
+ -t 1.198 -s 2 -d 3 -p cbr -e 1000 -c 2 -i 27 -a 2 -x {1.0 3.1 23 ------- null}
d -t 1.198 -s 2 -d 3 -p cbr -e 1000 -c 2 -i 27 -a 2 -x {1.0 3.1 23 ------- null}
+ -t 1.2 -s 1 -d 2 -p cbr -e 1000 -c 2 -i 29 -a 2 -x {1.0 3.1 25 ------- null}
- -t 1.2 -s 1 -d 2 -p cbr -e 1000 -c 2 -i 29 -a 2 -x {1.0 3.1 25 ------- null}
h -t 1.2 -s 1 -d 2 -p cbr -e 1000 -c 2 -i 29 -a 2 -x {1.0 3.1 -1 ------- null}
r -t 1.206 -s 1 -d 2 -p cbr -e 1000 -c 2 -i 28 -a 2 -x {1.0 3.1 24 ------- null}
+ -t 1.206 -s 2 -d 3 -p cbr -e 1000 -c 2 -i 28 -a 2 -x {1.0 3.1 24 ------- null}
d -t 1.206 -s 2 -d 3 -p cbr -e 1000 -c 2 -i 28 -a 2 -x {1.0 3.1 24 ------- null}
+ -t 1.208 -s 1 -d 2 -p cbr -e 1000 -c 2 -i 30 -a 2 -x {1.0 3.1 26 ------- null}
- -t 1.208 -s 1 -d 2 -p cbr -e 1000 -c 2 -i 30 -a 2 -x {1.0 3.1 26 ------- null}
h -t 1.208 -s 1 -d 2 -p cbr -e 1000 -c 2 -i 30 -a 2 -x {1.0 3.1 -1 ------- null}
r -t 1.214 -s 1 -d 2 -p cbr -e 1000 -c 2 -i 29 -a 2 -x {1.0 3.1 25 ------- null}
+ -t 1.214 -s 2 -d 3 -p cbr -e 1000 -c 2 -i 29 -a 2 -x {1.0 3.1 25 ------- null}
d -t 1.214 -s 2 -d 3 -p cbr -e 1000 -c 2 -i 29 -a 2 -x {1.0 3.1 25 ------- null}
+ -t 1.216 -s 1 -d 2 -p cbr -e 1000 -c 2 -i 31 -a 2 -x {1.0 3.1 27 ------- null}
- -t 1.216 -s 1 -d 2 -p cbr -e 1000 -c 2 -i 31 -a 2 -x {1.0 3.1 27 ------- null}
h -t 1.216 -s 1 -d 2 -p cbr -e 1000 -c 2 -i 31 -a 2 -x {1.0 3.1 -1 ------- null}
r -t 1.222 -s 1 -d 2 -p cbr -e 1000 -c 2 -i 30 -a 2 -x {1.0 3.1 26 ------- null}
+ -t 1.222 -s 2 -d 3 -p cbr -e 1000 -c 2 -i 30 -a 2 -x {1.0 3.1 26 ------- null}
d -t 1.222 -s 2 -d 3 -p cbr -e 1000 -c 2 -i 30 -a 2 -x {1.0 3.1 26 ------- null}
+ -t 1.224 -s 1 -d 2 -p cbr -e 1000 -c 2 -i 32 -a 2 -x {1.0 3.1 28 ------- null}
- -t 1.224 -s 1 -d 2 -p cbr -e 1000 -c 2 -i 32 -a 2 -x {1.0 3.1 28 ------- null}
h -t 1.224 -s 1 -d 2 -p cbr -e 1000 -c 2 -i 32 -a 2 -x {1.0 3.1 -1 ------- null}
r -t 1.23 -s 1 -d 2 -p cbr -e 1000 -c 2 -i 31 -a 2 -x {1.0 3.1 27 ------- null}
+ -t 1.23 -s 2 -d 3 -p cbr -e 1000 -c 2 -i 31 -a 2 -x {1.0 3.1 27 ------- null}
d -t 1.23 -s 2 -d 3 -p cbr -e 1000 -c 2 -i 31 -a 2 -x {1.0 3.1 27 ------- null}
+ -t 1.232 -s 1 -d 2 -p cbr -e 1000 -c 2 -i 33 -a 2 -x {1.0 3.1 29 ------- null}
- -t 1.232 -s 1 -d 2 -p cbr -e 1000 -c 2 -i 33 -a 2 -x {1.0 3.1 29 ------- null}
h -t 1.232 -s 1 -d 2 -p cbr -e 1000 -c 2 -i 33 -a 2 -x {1.0 3.1 -1 ------- null}
r -t 1.238 -s 1 -d 2 -p cbr -e 1000 -c 2 -i 32 -a 2 -x {1.0 3.1 28 ------- null}
+ -t 1.238 -s 2 -d 3 -p cbr -e 1000 -c 2 -i 32 -a 2 -x {1.0 3.1 28 ------- null}
d -t 1.238 -s 2 -d 3 -p cbr -e 1000 -c 2 -i 32 -a 2 -x {1.0 3.1 28 ------- null}
+ -t 1.24 -s 1 -d 2 -p cbr -e 1000 -c 2 -i 34 -a 2 -x {1.0 3.1 30 ------- null}
- -t 1.24 -s 1 -d 2 -p cbr -e 1000 -c 2 -i 34 -a 2 -x {1.0 3.1 30 ------- null}
h -t 1.24 -s 1 -d 2 -p cbr -e 1000 -c 2 -i 34 -a 2 -x {1.0 3.1 -1 ------- null}
- -t 1.24330285714286 -s 2 -d 3 -p cbr -e 1000 -c 2 -i 3 -a 2 -x {1.0 3.1 2 ------- null}
h -t 1.24330285714286 -s 2 -d 3 -p cbr -e 1000 -c 2 -i 3 -a 2 -x {1.0 3.1 -1 ------- null}
r -t 1.246 -s 1 -d 2 -p cbr -e 1000 -c 2 -i 33 -a 2 -x {1.0 3.1 29 ------- null}
+ -t 1.246 -s 2 -d 3 -p cbr -e 1000 -c 2 -i 33 -a 2 -x {1.0 3.1 29 ------- null}
+ -t 1.248 -s 1 -d 2 -p cbr -e 1000 -c 2 -i 35 -a 2 -x {1.0 3.1 31 ------- null}
- -t 1.248 -s 1 -d 2 -p cbr -e 1000 -c 2 -i 35 -a 2 -x {1.0 3.1 31 ------- null}
h -t 1.248 -s 1 -d 2 -p cbr -e 1000 -c 2 -i 35 -a 2 -x {1.0 3.1 -1 ------- null}
r -t 1.254 -s 1 -d 2 -p cbr -e 1000 -c 2 -i 34 -a 2 -x {1.0 3.1 30 ------- null}
+ -t 1.254 -s 2 -d 3 -p cbr -e 1000 -c 2 -i 34 -a 2 -x {1.0 3.1 30 ------- null}
d -t 1.254 -s 2 -d 3 -p cbr -e 1000 -c 2 -i 34 -a 2 -x {1.0 3.1 30 ------- null}
+ -t 1.256 -s 1 -d 2 -p cbr -e 1000 -c 2 -i 36 -a 2 -x {1.0 3.1 32 ------- null}
- -t 1.256 -s 1 -d 2 -p cbr -e 1000 -c 2 -i 36 -a 2 -x {1.0 3.1 32 ------- null}
h -t 1.256 -s 1 -d 2 -p cbr -e 1000 -c 2 -i 36 -a 2 -x {1.0 3.1 -1 ------- null}
r -t 1.262 -s 1 -d 2 -p cbr -e 1000 -c 2 -i 35 -a 2 -x {1.0 3.1 31 ------- null}
+ -t 1.262 -s 2 -d 3 -p cbr -e 1000 -c 2 -i 35 -a 2 -x {1.0 3.1 31 ------- null}
d -t 1.262 -s 2 -d 3 -p cbr -e 1000 -c 2 -i 35 -a 2 -x {1.0 3.1 31 ------- null}
r -t 1.26330285714286 -s 2 -d 3 -p cbr -e 1000 -c 2 -i 2 -a 2 -x {1.0 3.1 1 ------- null}
+ -t 1.264 -s 1 -d 2 -p cbr -e 1000 -c 2 -i 37 -a 2 -x {1.0 3.1 33 ------- null}
- -t 1.264 -s 1 -d 2 -p cbr -e 1000 -c 2 -i 37 -a 2 -x {1.0 3.1 33 ------- null}
h -t 1.264 -s 1 -d 2 -p cbr -e 1000 -c 2 -i 37 -a 2 -x {1.0 3.1 -1 ------- null}
r -t 1.27 -s 1 -d 2 -p cbr -e 1000 -c 2 -i 36 -a 2 -x {1.0 3.1 32 ------- null}
+ -t 1.27 -s 2 -d 3 -p cbr -e 1000 -c 2 -i 36 -a 2 -x {1.0 3.1 32 ------- null}
d -t 1.27 -s 2 -d 3 -p cbr -e 1000 -c 2 -i 36 -a 2 -x {1.0 3.1 32 ------- null}
+ -t 1.272 -s 1 -d 2 -p cbr -e 1000 -c 2 -i 38 -a 2 -x {1.0 3.1 34 ------- null}
- -t 1.272 -s 1 -d 2 -p cbr -e 1000 -c 2 -i 38 -a 2 -x {1.0 3.1 34 ------- null}
h -t 1.272 -s 1 -d 2 -p cbr -e 1000 -c 2 -i 38 -a 2 -x {1.0 3.1 -1 ------- null}
r -t 1.278 -s 1 -d 2 -p cbr -e 1000 -c 2 -i 37 -a 2 -x {1.0 3.1 33 ------- null}
+ -t 1.278 -s 2 -d 3 -p cbr -e 1000 -c 2 -i 37 -a 2 -x {1.0 3.1 33 ------- null}
d -t 1.278 -s 2 -d 3 -p cbr -e 1000 -c 2 -i 37 -a 2 -x {1.0 3.1 33 ------- null}
+ -t 1.27946285714286 -s 0 -d 2 -p tcp -e 1040 -c 1 -i 39 -a 1 -x {0.0 3.0 1 ---A--- null}
- -t 1.27946285714286 -s 0 -d 2 -p tcp -e 1040 -c 1 -i 39 -a 1 -x {0.0 3.0 1 ---A--- null}
h -t 1.27946285714286 -s 0 -d 2 -p tcp -e 1040 -c 1 -i 39 -a 1 -x {0.0 3.0 -1 ---A--- null}
+ -t 1.28 -s 1 -d 2 -p cbr -e 1000 -c 2 -i 40 -a 2 -x {1.0 3.1 35 ------- null}
- -t 1.28 -s 1 -d 2 -p cbr -e 1000 -c 2 -i 40 -a 2 -x {1.0 3.1 35 ------- null}
h -t 1.28 -s 1 -d 2 -p cbr -e 1000 -c 2 -i 40 -a 2 -x {1.0 3.1 -1 ------- null}
r -t 1.286 -s 1 -d 2 -p cbr -e 1000 -c 2 -i 38 -a 2 -x {1.0 3.1 34 ------- null}
+ -t 1.286 -s 2 -d 3 -p cbr -e 1000 -c 2 -i 38 -a 2 -x {1.0 3.1 34 ------- null}
d -t 1.286 -s 2 -d 3 -p cbr -e 1000 -c 2 -i 38 -a 2 -x {1.0 3.1 34 ------- null}
+ -t 1.288 -s 1 -d 2 -p cbr -e 1000 -c 2 -i 41 -a 2 -x {1.0 3.1 36 ------- null}
- -t 1.288 -s 1 -d 2 -p cbr -e 1000 -c 2 -i 41 -a 2 -x {1.0 3.1 36 ------- null}
h -t 1.288 -s 1 -d 2 -p cbr -e 1000 -c 2 -i 41 -a 2 -x {1.0 3.1 -1 ------- null}
r -t 1.29362285714286 -s 0 -d 2 -p tcp -e 1040 -c 1 -i 39 -a 1 -x {0.0 3.0 1 ---A--- null}
+ -t 1.29362285714286 -s 2 -d 3 -p tcp -e 1040 -c 1 -i 39 -a 1 -x {0.0 3.0 1 ---A--- null}
d -t 1.29362285714286 -s 2 -d 3 -p tcp -e 1040 -c 1 -i 39 -a 1 -x {0.0 3.0 1 ---A--- null}
r -t 1.294 -s 1 -d 2 -p cbr -e 1000 -c 2 -i 40 -a 2 -x {1.0 3.1 35 ------- null}
+ -t 1.294 -s 2 -d 3 -p cbr -e 1000 -c 2 -i 40 -a 2 -x {1.0 3.1 35 ------- null}
d -t 1.294 -s 2 -d 3 -p cbr -e 1000 -c 2 -i 40 -a 2 -x {1.0 3.1 35 ------- null}
+ -t 1.296 -s 1 -d 2 -p cbr -e 1000 -c 2 -i 42 -a 2 -x {1.0 3.1 37 ------- null}
- -t 1.296 -s 1 -d 2 -p cbr -e 1000 -c 2 -i 42 -a 2 -x {1.0 3.1 37 ------- null}
h -t 1.296 -s 1 -d 2 -p cbr -e 1000 -c 2 -i 42 -a 2 -x {1.0 3.1 -1 ------- null}
r -t 1.302 -s 1 -d 2 -p cbr -e 1000 -c 2 -i 41 -a 2 -x {1.0 3.1 36 ------- null}
+ -t 1.302 -s 2 -d 3 -p cbr -e 1000 -c 2 -i 41 -a 2 -x {1.0 3.1 36 ------- null}
d -t 1.302 -s 2 -d 3 -p cbr -e 1000 -c 2 -i 41 -a 2 -x {1.0 3.1 36 ------- null}
+ -t 1.304 -s 1 -d 2 -p cbr -e 1000 -c 2 -i 43 -a 2 -x {1.0 3.1 38 ------- null}
- -t 1.304 -s 1 -d 2 -p cbr -e 1000 -c 2 -i 43 -a 2 -x {1.0 3.1 38 ------- null}
h -t 1.304 -s 1 -d 2 -p cbr -e 1000 -c 2 -i 43 -a 2 -x {1.0 3.1 -1 ------- null}
r -t 1.31 -s 1 -d 2 -p cbr -e 1000 -c 2 -i 42 -a 2 -x {1.0 3.1 37 ------- null}
+ -t 1.31 -s 2 -d 3 -p cbr -e 1000 -c 2 -i 42 -a 2 -x {1.0 3.1 37 ------- null}
d -t 1.31 -s 2 -d 3 -p cbr -e 1000 -c 2 -i 42 -a 2 -x {1.0 3.1 37 ------- null}
+ -t 1.312 -s 1 -d 2 -p cbr -e 1000 -c 2 -i 44 -a 2 -x {1.0 3.1 39 ------- null}
- -t 1.312 -s 1 -d 2 -p cbr -e 1000 -c 2 -i 44 -a 2 -x {1.0 3.1 39 ------- null}
h -t 1.312 -s 1 -d 2 -p cbr -e 1000 -c 2 -i 44 -a 2 -x {1.0 3.1 -1 ------- null}
r -t 1.318 -s 1 -d 2 -p cbr -e 1000 -c 2 -i 43 -a 2 -x {1.0 3.1 38 ------- null}
+ -t 1.318 -s 2 -d 3 -p cbr -e 1000 -c 2 -i 43 -a 2 -x {1.0 3.1 38 ------- null}
d -t 1.318 -s 2 -d 3 -p cbr -e 1000 -c 2 -i 43 -a 2 -x {1.0 3.1 38 ------- null}
+ -t 1.32 -s 1 -d 2 -p cbr -e 1000 -c 2 -i 45 -a 2 -x {1.0 3.1 40 ------- null}
- -t 1.32 -s 1 -d 2 -p cbr -e 1000 -c 2 -i 45 -a 2 -x {1.0 3.1 40 ------- null}
h -t 1.32 -s 1 -d 2 -p cbr -e 1000 -c 2 -i 45 -a 2 -x {1.0 3.1 -1 ------- null}
r -t 1.326 -s 1 -d 2 -p cbr -e 1000 -c 2 -i 44 -a 2 -x {1.0 3.1 39 ------- null}
+ -t 1.326 -s 2 -d 3 -p cbr -e 1000 -c 2 -i 44 -a 2 -x {1.0 3.1 39 ------- null}
d -t 1.326 -s 2 -d 3 -p cbr -e 1000 -c 2 -i 44 -a 2 -x {1.0 3.1 39 ------- null}
+ -t 1.328 -s 1 -d 2 -p cbr -e 1000 -c 2 -i 46 -a 2 -x {1.0 3.1 41 ------- null}
- -t 1.328 -s 1 -d 2 -p cbr -e 1000 -c 2 -i 46 -a 2 -x {1.0 3.1 41 ------- null}
h -t 1.328 -s 1 -d 2 -p cbr -e 1000 -c 2 -i 46 -a 2 -x {1.0 3.1 -1 ------- null}
r -t 1.334 -s 1 -d 2 -p cbr -e 1000 -c 2 -i 45 -a 2 -x {1.0 3.1 40 ------- null}
+ -t 1.334 -s 2 -d 3 -p cbr -e 1000 -c 2 -i 45 -a 2 -x {1.0 3.1 40 ------- null}
d -t 1.334 -s 2 -d 3 -p cbr -e 1000 -c 2 -i 45 -a 2 -x {1.0 3.1 40 ------- null}
+ -t 1.336 -s 1 -d 2 -p cbr -e 1000 -c 2 -i 47 -a 2 -x {1.0 3.1 42 ------- null}
- -t 1.336 -s 1 -d 2 -p cbr -e 1000 -c 2 -i 47 -a 2 -x {1.0 3.1 42 ------- null}
h -t 1.336 -s 1 -d 2 -p cbr -e 1000 -c 2 -i 47 -a 2 -x {1.0 3.1 -1 ------- null}
r -t 1.342 -s 1 -d 2 -p cbr -e 1000 -c 2 -i 46 -a 2 -x {1.0 3.1 41 ------- null}
+ -t 1.342 -s 2 -d 3 -p cbr -e 1000 -c 2 -i 46 -a 2 -x {1.0 3.1 41 ------- null}
d -t 1.342 -s 2 -d 3 -p cbr -e 1000 -c 2 -i 46 -a 2 -x {1.0 3.1 41 ------- null}
+ -t 1.344 -s 1 -d 2 -p cbr -e 1000 -c 2 -i 48 -a 2 -x {1.0 3.1 43 ------- null}
- -t 1.344 -s 1 -d 2 -p cbr -e 1000 -c 2 -i 48 -a 2 -x {1.0 3.1 43 ------- null}
h -t 1.344 -s 1 -d 2 -p cbr -e 1000 -c 2 -i 48 -a 2 -x {1.0 3.1 -1 ------- null}
r -t 1.35 -s 1 -d 2 -p cbr -e 1000 -c 2 -i 47 -a 2 -x {1.0 3.1 42 ------- null}
+ -t 1.35 -s 2 -d 3 -p cbr -e 1000 -c 2 -i 47 -a 2 -x {1.0 3.1 42 ------- null}
d -t 1.35 -s 2 -d 3 -p cbr -e 1000 -c 2 -i 47 -a 2 -x {1.0 3.1 42 ------- null}
+ -t 1.352 -s 1 -d 2 -p cbr -e 1000 -c 2 -i 49 -a 2 -x {1.0 3.1 44 ------- null}
- -t 1.352 -s 1 -d 2 -p cbr -e 1000 -c 2 -i 49 -a 2 -x {1.0 3.1 44 ------- null}
h -t 1.352 -s 1 -d 2 -p cbr -e 1000 -c 2 -i 49 -a 2 -x {1.0 3.1 -1 ------- null}
- -t 1.35758857142857 -s 2 -d 3 -p cbr -e 1000 -c 2 -i 19 -a 2 -x {1.0 3.1 15 ------- null}
h -t 1.35758857142857 -s 2 -d 3 -p cbr -e 1000 -c 2 -i 19 -a 2 -x {1.0 3.1 -1 ------- null}
r -t 1.358 -s 1 -d 2 -p cbr -e 1000 -c 2 -i 48 -a 2 -x {1.0 3.1 43 ------- null}
+ -t 1.358 -s 2 -d 3 -p cbr -e 1000 -c 2 -i 48 -a 2 -x {1.0 3.1 43 ------- null}
+ -t 1.36 -s 1 -d 2 -p cbr -e 1000 -c 2 -i 50 -a 2 -x {1.0 3.1 45 ------- null}
- -t 1.36 -s 1 -d 2 -p cbr -e 1000 -c 2 -i 50 -a 2 -x {1.0 3.1 45 ------- null}
h -t 1.36 -s 1 -d 2 -p cbr -e 1000 -c 2 -i 50 -a 2 -x {1.0 3.1 -1 ------- null}
r -t 1.366 -s 1 -d 2 -p cbr -e 1000 -c 2 -i 49 -a 2 -x {1.0 3.1 44 ------- null}
+ -t 1.366 -s 2 -d 3 -p cbr -e 1000 -c 2 -i 49 -a 2 -x {1.0 3.1 44 ------- null}
d -t 1.366 -s 2 -d 3 -p cbr -e 1000 -c 2 -i 49 -a 2 -x {1.0 3.1 44 ------- null}
+ -t 1.368 -s 1 -d 2 -p cbr -e 1000 -c 2 -i 51 -a 2 -x {1.0 3.1 46 ------- null}
- -t 1.368 -s 1 -d 2 -p cbr -e 1000 -c 2 -i 51 -a 2 -x {1.0 3.1 46 ------- null}
h -t 1.368 -s 1 -d 2 -p cbr -e 1000 -c 2 -i 51 -a 2 -x {1.0 3.1 -1 ------- null}
r -t 1.374 -s 1 -d 2 -p cbr -e 1000 -c 2 -i 50 -a 2 -x {1.0 3.1 45 ------- null}
+ -t 1.374 -s 2 -d 3 -p cbr -e 1000 -c 2 -i 50 -a 2 -x {1.0 3.1 45 ------- null}
d -t 1.374 -s 2 -d 3 -p cbr -e 1000 -c 2 -i 50 -a 2 -x {1.0 3.1 45 ------- null}
+ -t 1.376 -s 1 -d 2 -p cbr -e 1000 -c 2 -i 52 -a 2 -x {1.0 3.1 47 ------- null}
- -t 1.376 -s 1 -d 2 -p cbr -e 1000 -c 2 -i 52 -a 2 -x {1.0 3.1 47 ------- null}
h -t 1.376 -s 1 -d 2 -p cbr -e 1000 -c 2 -i 52 -a 2 -x {1.0 3.1 -1 ------- null}
r -t 1.37758857142857 -s 2 -d 3 -p cbr -e 1000 -c 2 -i 3 -a 2 -x {1.0 3.1 2 ------- null}
r -t 1.382 -s 1 -d 2 -p cbr -e 1000 -c 2 -i 51 -a 2 -x {1.0 3.1 46 ------- null}
+ -t 1.382 -s 2 -d 3 -p cbr -e 1000 -c 2 -i 51 -a 2 -x {1.0 3.1 46 ------- null}
d -t 1.382 -s 2 -d 3 -p cbr -e 1000 -c 2 -i 51 -a 2 -x {1.0 3.1 46 ------- null}
+ -t 1.384 -s 1 -d 2 -p cbr -e 1000 -c 2 -i 53 -a 2 -x {1.0 3.1 48 ------- null}
- -t 1.384 -s 1 -d 2 -p cbr -e 1000 -c 2 -i 53 -a 2 -x {1.0 3.1 48 ------- null}
h -t 1.384 -s 1 -d 2 -p cbr -e 1000 -c 2 -i 53 -a 2 -x {1.0 3.1 -1 ------- null}
r -t 1.39 -s 1 -d 2 -p cbr -e 1000 -c 2 -i 52 -a 2 -x {1.0 3.1 47 ------- null}
+ -t 1.39 -s 2 -d 3 -p cbr -e 1000 -c 2 -i 52 -a 2 -x {1.0 3.1 47 ------- null}
d -t 1.39 -s 2 -d 3 -p cbr -e 1000 -c 2 -i 52 -a 2 -x {1.0 3.1 47 ------- null}
+ -t 1.392 -s 1 -d 2 -p cbr -e 1000 -c 2 -i 54 -a 2 -x {1.0 3.1 49 ------- null}
- -t 1.392 -s 1 -d 2 -p cbr -e 1000 -c 2 -i 54 -a 2 -x {1.0 3.1 49 ------- null}
h -t 1.392 -s 1 -d 2 -p cbr -e 1000 -c 2 -i 54 -a 2 -x {1.0 3.1 -1 ------- null}
r -t 1.398 -s 1 -d 2 -p cbr -e 1000 -c 2 -i 53 -a 2 -x {1.0 3.1 48 ------- null}
+ -t 1.398 -s 2 -d 3 -p cbr -e 1000 -c 2 -i 53 -a 2 -x {1.0 3.1 48 ------- null}
d -t 1.398 -s 2 -d 3 -p cbr -e 1000 -c 2 -i 53 -a 2 -x {1.0 3.1 48 ------- null}
+ -t 1.4 -s 1 -d 2 -p cbr -e 1000 -c 2 -i 55 -a 2 -x {1.0 3.1 50 ------- null}
- -t 1.4 -s 1 -d 2 -p cbr -e 1000 -c 2 -i 55 -a 2 -x {1.0 3.1 50 ------- null}
h -t 1.4 -s 1 -d 2 -p cbr -e 1000 -c 2 -i 55 -a 2 -x {1.0 3.1 -1 ------- null}
r -t 1.406 -s 1 -d 2 -p cbr -e 1000 -c 2 -i 54 -a 2 -x {1.0 3.1 49 ------- null}
+ -t 1.406 -s 2 -d 3 -p cbr -e 1000 -c 2 -i 54 -a 2 -x {1.0 3.1 49 ------- null}
d -t 1.406 -s 2 -d 3 -p cbr -e 1000 -c 2 -i 54 -a 2 -x {1.0 3.1 49 ------- null}
+ -t 1.408 -s 1 -d 2 -p cbr -e 1000 -c 2 -i 56 -a 2 -x {1.0 3.1 51 ------- null}
- -t 1.408 -s 1 -d 2 -p cbr -e 1000 -c 2 -i 56 -a 2 -x {1.0 3.1 51 ------- null}
h -t 1.408 -s 1 -d 2 -p cbr -e 1000 -c 2 -i 56 -a 2 -x {1.0 3.1 -1 ------- null}
r -t 1.414 -s 1 -d 2 -p cbr -e 1000 -c 2 -i 55 -a 2 -x {1.0 3.1 50 ------- null}
+ -t 1.414 -s 2 -d 3 -p cbr -e 1000 -c 2 -i 55 -a 2 -x {1.0 3.1 50 ------- null}
d -t 1.414 -s 2 -d 3 -p cbr -e 1000 -c 2 -i 55 -a 2 -x {1.0 3.1 50 ------- null}
+ -t 1.416 -s 1 -d 2 -p cbr -e 1000 -c 2 -i 57 -a 2 -x {1.0 3.1 52 ------- null}
- -t 1.416 -s 1 -d 2 -p cbr -e 1000 -c 2 -i 57 -a 2 -x {1.0 3.1 52 ------- null}
h -t 1.416 -s 1 -d 2 -p cbr -e 1000 -c 2 -i 57 -a 2 -x {1.0 3.1 -1 ------- null}
r -t 1.422 -s 1 -d 2 -p cbr -e 1000 -c 2 -i 56 -a 2 -x {1.0 3.1 51 ------- null}
+ -t 1.422 -s 2 -d 3 -p cbr -e 1000 -c 2 -i 56 -a 2 -x {1.0 3.1 51 ------- null}
d -t 1.422 -s 2 -d 3 -p cbr -e 1000 -c 2 -i 56 -a 2 -x {1.0 3.1 51 ------- null}
+ -t 1.424 -s 1 -d 2 -p cbr -e 1000 -c 2 -i 58 -a 2 -x {1.0 3.1 53 ------- null}
- -t 1.424 -s 1 -d 2 -p cbr -e 1000 -c 2 -i 58 -a 2 -x {1.0 3.1 53 ------- null}
h -t 1.424 -s 1 -d 2 -p cbr -e 1000 -c 2 -i 58 -a 2 -x {1.0 3.1 -1 ------- null}
r -t 1.43 -s 1 -d 2 -p cbr -e 1000 -c 2 -i 57 -a 2 -x {1.0 3.1 52 ------- null}
+ -t 1.43 -s 2 -d 3 -p cbr -e 1000 -c 2 -i 57 -a 2 -x {1.0 3.1 52 ------- null}
d -t 1.43 -s 2 -d 3 -p cbr -e 1000 -c 2 -i 57 -a 2 -x {1.0 3.1 52 ------- null}
+ -t 1.432 -s 1 -d 2 -p cbr -e 1000 -c 2 -i 59 -a 2 -x {1.0 3.1 54 ------- null}
- -t 1.432 -s 1 -d 2 -p cbr -e 1000 -c 2 -i 59 -a 2 -x {1.0 3.1 54 ------- null}